
     Program PWSCF v.7.1 starts on 10Apr2023 at 16:26:32 

     This program is part of the open-source Quantum ESPRESSO suite
     for quantum simulation of materials; please cite
         "P. Giannozzi et al., J. Phys.:Condens. Matter 21 395502 (2009);
         "P. Giannozzi et al., J. Phys.:Condens. Matter 29 465901 (2017);
         "P. Giannozzi et al., J. Chem. Phys. 152 154105 (2020);
          URL http://www.quantum-espresso.org", 
     in publications or presentations arising from this work. More details at
     http://www.quantum-espresso.org/quote

     Serial multi-threaded version, running on    2 processor cores
     18622 MiB available memory on the printing compute node when the environment starts
 
     Waiting for input...
     Reading input from standard input

     Current dimensions of program PWSCF are:
     Max number of different atomic species (ntypx) = 10
     Max number of k-points (npk) =  40000
     Max angular momentum in pseudopotentials (lmaxx) =  4

     gamma-point specific algorithms are used
 
 
     G-vector sticks info
     --------------------
     sticks:   dense  smooth     PW     G-vecs:    dense   smooth      PW
     Sum        8929    8929   2233               632851   632851   79117
 
     Using Slab Decomposition
 


     bravais-lattice index     =            1
     lattice parameter (alat)  =      20.0000  a.u.
     unit-cell volume          =    8000.0000 (a.u.)^3
     number of atoms/cell      =            3
     number of atomic types    =            2
     number of electrons       =         8.00
     number of Kohn-Sham states=            5
     kinetic-energy cutoff     =      70.0000  Ry
     charge density cutoff     =     280.0000  Ry
     scf convergence threshold =      1.0E-12
     mixing beta               =       0.0500
     number of iterations used =            8  plain     mixing
     energy convergence thresh.=      1.0E-04
     force convergence thresh. =      1.0E-03
     Exchange-correlation= SLA  PW   NOGX NOGC
                           (   1   4   0   0   0   0   0)
     nstep                     =           50


     GPU acceleration is ACTIVE.
     GPU-aware MPI enabled


     celldm(1)=  20.000000  celldm(2)=   0.000000  celldm(3)=   0.000000
     celldm(4)=   0.000000  celldm(5)=   0.000000  celldm(6)=   0.000000

     crystal axes: (cart. coord. in units of alat)
               a(1) = (   1.000000   0.000000   0.000000 )  
               a(2) = (   0.000000   1.000000   0.000000 )  
               a(3) = (   0.000000   0.000000   1.000000 )  

     reciprocal axes: (cart. coord. in units 2 pi/alat)
               b(1) = (  1.000000  0.000000  0.000000 )  
               b(2) = (  0.000000  1.000000  0.000000 )  
               b(3) = (  0.000000  0.000000  1.000000 )  


     PseudoPot. # 1 for H  read from file:
     /opt/quantumespresso/pseudo_potenzials/H.upf
     MD5 check sum: 785d664e2740b342582c379770e72c80
     Pseudo is Norm-conserving, Zval =  1.0
     Generated using ONCVPSP code by D. R. Hamann
     Using radial grid of 1180 points,  3 beta functions with: 
                l(1) =   0
                l(2) =   0
                l(3) =   1

     PseudoPot. # 2 for O  read from file:
     /opt/quantumespresso/pseudo_potenzials/O.upf
     MD5 check sum: 86ed389b6a5065e60c3f64c68a612de9
     Pseudo is Norm-conserving + core correction, Zval =  6.0
     Generated using ONCVPSP code by D. R. Hamann
     Using radial grid of  926 points,  5 beta functions with: 
                l(1) =   0
                l(2) =   0
                l(3) =   1
                l(4) =   1
                l(5) =   2

     atomic species   valence    mass     pseudopotential
        H              1.00     1.00000     H ( 1.00)
        O              6.00    16.00000     O ( 1.00)

      2 Sym. Ops. (no inversion) found



   Cartesian axes

     site n.     atom                  positions (alat units)
         1           H   tau(   1) = (   0.5000000   0.5000000   0.5000000  )
         2           H   tau(   2) = (   0.6431455   0.5000000   0.5000000  )
         3           O   tau(   3) = (   0.5715727   0.5554675   0.5000000  )

     number of k points=     1
                       cart. coord. in units 2pi/alat
        k(    1) = (   0.0000000   0.0000000   0.0000000), wk =   2.0000000

     Dense  grid:   316426 G-vectors     FFT dimensions: ( 108, 108, 108)

     Estimated max dynamical RAM per process >     258.62 MB

     Initial potential from superposition of free atoms

     starting charge       8.0000, renormalised to       8.0000

     negative rho (up, down):  1.017E-04 0.000E+00
     Starting wfcs are    6 randomized atomic wfcs

     total cpu time spent up to now is        0.9 secs

     Self-consistent Calculation

     iteration #  1     ecut=    70.00 Ry     beta= 0.05
     Davidson diagonalization with overlap
     ethr =  1.00E-02,  avg # of iterations =  3.0

     negative rho (up, down):  9.619E-05 0.000E+00

     total cpu time spent up to now is        1.3 secs

     total energy              =     -35.43829172 Ry
     estimated scf accuracy    <       0.50475298 Ry

     iteration #  2     ecut=    70.00 Ry     beta= 0.05
     Davidson diagonalization with overlap
     ethr =  6.31E-03,  avg # of iterations =  1.0

     negative rho (up, down):  5.505E-05 0.000E+00

     total cpu time spent up to now is        1.5 secs

     total energy              =     -35.23202892 Ry
     estimated scf accuracy    <       0.39704568 Ry

     iteration #  3     ecut=    70.00 Ry     beta= 0.05
     Davidson diagonalization with overlap
     ethr =  4.96E-03,  avg # of iterations =  2.0

     negative rho (up, down):  5.475E-05 0.000E+00

     total cpu time spent up to now is        1.8 secs

     total energy              =     -35.31767437 Ry
     estimated scf accuracy    <       0.02528169 Ry

     iteration #  4     ecut=    70.00 Ry     beta= 0.05
     Davidson diagonalization with overlap
     ethr =  3.16E-04,  avg # of iterations =  4.0

     negative rho (up, down):  2.272E-06 0.000E+00

     total cpu time spent up to now is        2.1 secs

     total energy              =     -35.34110924 Ry
     estimated scf accuracy    <       0.02266922 Ry

     iteration #  5     ecut=    70.00 Ry     beta= 0.05
     Davidson diagonalization with overlap
     ethr =  2.83E-04,  avg # of iterations =  3.0

     negative rho (up, down):  1.847E-06 0.000E+00

     total cpu time spent up to now is        2.4 secs

     total energy              =     -35.24703656 Ry
     estimated scf accuracy    <       0.33560818 Ry

     iteration #  6     ecut=    70.00 Ry     beta= 0.05
     Davidson diagonalization with overlap
     ethr =  2.83E-04,  avg # of iterations =  3.0

     negative rho (up, down):  1.856E-06 0.000E+00

     total cpu time spent up to now is        2.7 secs

     total energy              =     -35.31017194 Ry
     estimated scf accuracy    <       0.00011625 Ry

     iteration #  7     ecut=    70.00 Ry     beta= 0.05
     Davidson diagonalization with overlap
     ethr =  1.45E-06,  avg # of iterations =  7.0

     negative rho (up, down):  1.450E-06 0.000E+00

     total cpu time spent up to now is        3.1 secs

     total energy              =     -35.31034116 Ry
     estimated scf accuracy    <       0.00009427 Ry

     iteration #  8     ecut=    70.00 Ry     beta= 0.05
     Davidson diagonalization with overlap
     ethr =  1.18E-06,  avg # of iterations =  1.0

     negative rho (up, down):  6.509E-07 0.000E+00

     total cpu time spent up to now is        3.4 secs

     total energy              =     -35.31037807 Ry
     estimated scf accuracy    <       0.00016216 Ry

     iteration #  9     ecut=    70.00 Ry     beta= 0.05
     Davidson diagonalization with overlap
     ethr =  1.18E-06,  avg # of iterations =  2.0

     negative rho (up, down):  8.123E-07 0.000E+00

     total cpu time spent up to now is        3.7 secs

     total energy              =     -35.31018972 Ry
     estimated scf accuracy    <       0.00031251 Ry

     iteration # 10     ecut=    70.00 Ry     beta= 0.05
     Davidson diagonalization with overlap
     ethr =  1.18E-06,  avg # of iterations =  3.0

     negative rho (up, down):  8.619E-07 0.000E+00

     total cpu time spent up to now is        4.0 secs

     total energy              =     -35.31038401 Ry
     estimated scf accuracy    <       0.00030498 Ry

     iteration # 11     ecut=    70.00 Ry     beta= 0.05
     Davidson diagonalization with overlap
     ethr =  1.18E-06,  avg # of iterations =  1.0

     negative rho (up, down):  1.460E-06 0.000E+00

     total cpu time spent up to now is        4.3 secs

     total energy              =     -35.31041261 Ry
     estimated scf accuracy    <       0.00028299 Ry

     iteration # 12     ecut=    70.00 Ry     beta= 0.05
     Davidson diagonalization with overlap
     ethr =  1.18E-06,  avg # of iterations =  1.0

     negative rho (up, down):  1.637E-06 0.000E+00

     total cpu time spent up to now is        4.6 secs

     total energy              =     -35.31044732 Ry
     estimated scf accuracy    <       0.00038107 Ry

     iteration # 13     ecut=    70.00 Ry     beta= 0.05
     Davidson diagonalization with overlap
     ethr =  1.18E-06,  avg # of iterations =  1.0

     negative rho (up, down):  1.779E-06 0.000E+00

     total cpu time spent up to now is        4.8 secs

     total energy              =     -35.31046539 Ry
     estimated scf accuracy    <       0.00050509 Ry

     iteration # 14     ecut=    70.00 Ry     beta= 0.05
     Davidson diagonalization with overlap
     ethr =  1.18E-06,  avg # of iterations =  1.0

     negative rho (up, down):  1.866E-06 0.000E+00

     total cpu time spent up to now is        5.1 secs

     total energy              =     -35.31047923 Ry
     estimated scf accuracy    <       0.00055366 Ry

     iteration # 15     ecut=    70.00 Ry     beta= 0.05
     Davidson diagonalization with overlap
     ethr =  1.18E-06,  avg # of iterations =  1.0

     total cpu time spent up to now is        5.4 secs

     total energy              =     -35.31018853 Ry
     estimated scf accuracy    <       0.00060489 Ry

     iteration # 16     ecut=    70.00 Ry     beta= 0.05
     Davidson diagonalization with overlap
     ethr =  1.18E-06,  avg # of iterations =  3.0

     total cpu time spent up to now is        5.7 secs

     total energy              =     -35.31030157 Ry
     estimated scf accuracy    <       0.00000088 Ry

     iteration # 17     ecut=    70.00 Ry     beta= 0.05
     Davidson diagonalization with overlap
     ethr =  1.10E-08,  avg # of iterations =  2.0

     total cpu time spent up to now is        5.9 secs

     total energy              =     -35.31030169 Ry
     estimated scf accuracy    <       0.00000040 Ry

     iteration # 18     ecut=    70.00 Ry     beta= 0.05
     Davidson diagonalization with overlap
     ethr =  4.95E-09,  avg # of iterations =  1.0

     total cpu time spent up to now is        6.2 secs

     total energy              =     -35.31030168 Ry
     estimated scf accuracy    <       0.00000022 Ry

     iteration # 19     ecut=    70.00 Ry     beta= 0.05
     Davidson diagonalization with overlap
     ethr =  2.72E-09,  avg # of iterations =  2.0

     total cpu time spent up to now is        6.5 secs

     total energy              =     -35.31030173 Ry
     estimated scf accuracy    <       0.00000020 Ry

     iteration # 20     ecut=    70.00 Ry     beta= 0.05
     Davidson diagonalization with overlap
     ethr =  2.55E-09,  avg # of iterations =  2.0

     total cpu time spent up to now is        6.8 secs

     total energy              =     -35.31030169 Ry
     estimated scf accuracy    <       0.00000019 Ry

     iteration # 21     ecut=    70.00 Ry     beta= 0.05
     Davidson diagonalization with overlap
     ethr =  2.36E-09,  avg # of iterations =  2.0

     total cpu time spent up to now is        7.1 secs

     total energy              =     -35.31030168 Ry
     estimated scf accuracy    <       0.00000004 Ry

     iteration # 22     ecut=    70.00 Ry     beta= 0.05
     Davidson diagonalization with overlap
     ethr =  5.23E-10,  avg # of iterations =  3.0

     total cpu time spent up to now is        7.4 secs

     total energy              =     -35.31030165 Ry
     estimated scf accuracy    <       0.00000019 Ry

     iteration # 23     ecut=    70.00 Ry     beta= 0.05
     Davidson diagonalization with overlap
     ethr =  5.23E-10,  avg # of iterations =  3.0

     total cpu time spent up to now is        7.7 secs

     total energy              =     -35.31030171 Ry
     estimated scf accuracy    <       0.00000003 Ry

     iteration # 24     ecut=    70.00 Ry     beta= 0.05
     Davidson diagonalization with overlap
     ethr =  3.21E-10,  avg # of iterations =  1.0

     total cpu time spent up to now is        8.0 secs

     total energy              =     -35.31030171 Ry
     estimated scf accuracy    <       0.00000001 Ry

     iteration # 25     ecut=    70.00 Ry     beta= 0.05
     Davidson diagonalization with overlap
     ethr =  1.67E-10,  avg # of iterations =  1.0

     total cpu time spent up to now is        8.2 secs

     total energy              =     -35.31030171 Ry
     estimated scf accuracy    <          4.4E-09 Ry

     iteration # 26     ecut=    70.00 Ry     beta= 0.05
     Davidson diagonalization with overlap
     ethr =  5.51E-11,  avg # of iterations =  1.0

     total cpu time spent up to now is        8.5 secs

     total energy              =     -35.31030171 Ry
     estimated scf accuracy    <          3.4E-09 Ry

     iteration # 27     ecut=    70.00 Ry     beta= 0.05
     Davidson diagonalization with overlap
     ethr =  4.25E-11,  avg # of iterations =  2.0

     total cpu time spent up to now is        8.8 secs

     total energy              =     -35.31030171 Ry
     estimated scf accuracy    <          4.8E-10 Ry

     iteration # 28     ecut=    70.00 Ry     beta= 0.05
     Davidson diagonalization with overlap
     ethr =  5.98E-12,  avg # of iterations =  2.0

     total cpu time spent up to now is        9.1 secs

     total energy              =     -35.31030171 Ry
     estimated scf accuracy    <          1.2E-10 Ry

     iteration # 29     ecut=    70.00 Ry     beta= 0.05
     Davidson diagonalization with overlap
     ethr =  1.52E-12,  avg # of iterations =  2.0

     total cpu time spent up to now is        9.4 secs

     total energy              =     -35.31030171 Ry
     estimated scf accuracy    <          2.6E-11 Ry

     iteration # 30     ecut=    70.00 Ry     beta= 0.05
     Davidson diagonalization with overlap
     ethr =  3.30E-13,  avg # of iterations =  2.0

     total cpu time spent up to now is        9.7 secs

     total energy              =     -35.31030171 Ry
     estimated scf accuracy    <          2.5E-11 Ry

     iteration # 31     ecut=    70.00 Ry     beta= 0.05
     Davidson diagonalization with overlap
     ethr =  3.07E-13,  avg # of iterations =  2.0

     total cpu time spent up to now is       10.0 secs

     total energy              =     -35.31030171 Ry
     estimated scf accuracy    <          3.6E-11 Ry

     iteration # 32     ecut=    70.00 Ry     beta= 0.05
     Davidson diagonalization with overlap
     ethr =  3.07E-13,  avg # of iterations =  2.0

     total cpu time spent up to now is       10.3 secs

     total energy              =     -35.31030171 Ry
     estimated scf accuracy    <          1.9E-11 Ry

     iteration # 33     ecut=    70.00 Ry     beta= 0.05
     Davidson diagonalization with overlap
     ethr =  2.39E-13,  avg # of iterations =  2.0

     total cpu time spent up to now is       10.6 secs

     total energy              =     -35.31030171 Ry
     estimated scf accuracy    <          6.6E-12 Ry

     iteration # 34     ecut=    70.00 Ry     beta= 0.05
     Davidson diagonalization with overlap
     ethr =  1.00E-13,  avg # of iterations =  2.0

     total cpu time spent up to now is       10.9 secs

     total energy              =     -35.31030171 Ry
     estimated scf accuracy    <          1.9E-11 Ry

     iteration # 35     ecut=    70.00 Ry     beta= 0.05
     Davidson diagonalization with overlap
     ethr =  1.00E-13,  avg # of iterations =  2.0

     total cpu time spent up to now is       11.2 secs

     total energy              =     -35.31030171 Ry
     estimated scf accuracy    <          3.1E-12 Ry

     iteration # 36     ecut=    70.00 Ry     beta= 0.05
     Davidson diagonalization with overlap
     ethr =  1.00E-13,  avg # of iterations =  1.0

     total cpu time spent up to now is       11.5 secs

     total energy              =     -35.31030171 Ry
     estimated scf accuracy    <          1.4E-12 Ry

     iteration # 37     ecut=    70.00 Ry     beta= 0.05
     Davidson diagonalization with overlap
     ethr =  1.00E-13,  avg # of iterations =  1.0

     total cpu time spent up to now is       11.7 secs

     End of self-consistent calculation

          k = 0.0000 0.0000 0.0000 ( 39559 PWs)   bands (ev):

   -25.1123 -13.1992  -9.2874  -7.2877  -0.9501

     highest occupied, lowest unoccupied level (ev):    -7.2877   -0.9501

!    total energy              =     -35.31030171 Ry
     estimated scf accuracy    <          7.2E-13 Ry

     The total energy is the sum of the following terms:
     one-electron contribution =     -64.24861512 Ry
     hartree contribution      =      33.60602248 Ry
     xc contribution           =      -9.56427982 Ry
     ewald contribution        =       4.89657075 Ry

     convergence has been achieved in  37 iterations

     Forces acting on atoms (cartesian axes, Ry/au):

     atom    1 type  1   force =    -0.01539802   -0.00835810    0.00000000
     atom    2 type  1   force =     0.01539451   -0.00835806    0.00000000
     atom    3 type  2   force =     0.00000351    0.01671616    0.00000000

     Total force =     0.029887     Total SCF correction =     0.000000

     BFGS Geometry Optimization
     Energy error            =      0.0E+00 Ry
     Gradient error          =      1.7E-02 Ry/Bohr

     number of scf cycles    =   1
     number of bfgs steps    =   0

     energy             new  =     -35.3103017060 Ry

     new trust radius        =       0.0175201860 bohr
     new conv_thr            =            1.0E-12 Ry


ATOMIC_POSITIONS (bohr)
H             9.9846019774        9.9916419011       10.0000000000
H            12.8783043295        9.9916419411       10.0000000000
O            11.4314584201       11.1260663479       10.0000000000



     Writing config-only to output data dir /opt/quantumespresso/results/h2o.save/
     NEW-OLD atomic charge density approx. for the potential

     negative rho (up, down):  1.648E-05 0.000E+00

     total cpu time spent up to now is       12.0 secs

     Self-consistent Calculation

     iteration #  1     ecut=    70.00 Ry     beta= 0.05
     Davidson diagonalization with overlap
     ethr =  1.00E-06,  avg # of iterations =  5.0

     negative rho (up, down):  1.549E-05 0.000E+00

     total cpu time spent up to now is       12.4 secs

     total energy              =     -35.31056327 Ry
     estimated scf accuracy    <       0.00056086 Ry

     iteration #  2     ecut=    70.00 Ry     beta= 0.05
     Davidson diagonalization with overlap
     ethr =  7.01E-06,  avg # of iterations =  1.0

     negative rho (up, down):  9.132E-06 0.000E+00

     total cpu time spent up to now is       12.6 secs

     total energy              =     -35.31037200 Ry
     estimated scf accuracy    <       0.00042090 Ry

     iteration #  3     ecut=    70.00 Ry     beta= 0.05
     Davidson diagonalization with overlap
     ethr =  5.26E-06,  avg # of iterations =  2.0

     negative rho (up, down):  5.756E-06 0.000E+00

     total cpu time spent up to now is       12.8 secs

     total energy              =     -35.31043518 Ry
     estimated scf accuracy    <       0.00002985 Ry

     iteration #  4     ecut=    70.00 Ry     beta= 0.05
     Davidson diagonalization with overlap
     ethr =  3.73E-07,  avg # of iterations =  2.0

     negative rho (up, down):  1.680E-06 0.000E+00

     total cpu time spent up to now is       13.1 secs

     total energy              =     -35.31042519 Ry
     estimated scf accuracy    <       0.00002809 Ry

     iteration #  5     ecut=    70.00 Ry     beta= 0.05
     Davidson diagonalization with overlap
     ethr =  3.51E-07,  avg # of iterations =  2.0

     negative rho (up, down):  1.486E-06 0.000E+00

     total cpu time spent up to now is       13.4 secs

     total energy              =     -35.31043192 Ry
     estimated scf accuracy    <       0.00000487 Ry

     iteration #  6     ecut=    70.00 Ry     beta= 0.05
     Davidson diagonalization with overlap
     ethr =  6.09E-08,  avg # of iterations =  2.0

     negative rho (up, down):  7.753E-07 0.000E+00

     total cpu time spent up to now is       13.6 secs

     total energy              =     -35.31043266 Ry
     estimated scf accuracy    <       0.00000071 Ry

     iteration #  7     ecut=    70.00 Ry     beta= 0.05
     Davidson diagonalization with overlap
     ethr =  8.93E-09,  avg # of iterations =  3.0

     total cpu time spent up to now is       13.9 secs

     total energy              =     -35.31043222 Ry
     estimated scf accuracy    <       0.00000228 Ry

     iteration #  8     ecut=    70.00 Ry     beta= 0.05
     Davidson diagonalization with overlap
     ethr =  8.93E-09,  avg # of iterations =  2.0

     total cpu time spent up to now is       14.2 secs

     total energy              =     -35.31043262 Ry
     estimated scf accuracy    <          6.9E-09 Ry

     iteration #  9     ecut=    70.00 Ry     beta= 0.05
     Davidson diagonalization with overlap
     ethr =  8.66E-11,  avg # of iterations =  4.0

     total cpu time spent up to now is       14.6 secs

     total energy              =     -35.31043260 Ry
     estimated scf accuracy    <       0.00000011 Ry

     iteration # 10     ecut=    70.00 Ry     beta= 0.05
     Davidson diagonalization with overlap
     ethr =  8.66E-11,  avg # of iterations =  3.0

     total cpu time spent up to now is       14.9 secs

     total energy              =     -35.31043262 Ry
     estimated scf accuracy    <          1.1E-09 Ry

     iteration # 11     ecut=    70.00 Ry     beta= 0.05
     Davidson diagonalization with overlap
     ethr =  1.35E-11,  avg # of iterations =  2.0

     total cpu time spent up to now is       15.2 secs

     total energy              =     -35.31043262 Ry
     estimated scf accuracy    <          2.3E-09 Ry

     iteration # 12     ecut=    70.00 Ry     beta= 0.05
     Davidson diagonalization with overlap
     ethr =  1.35E-11,  avg # of iterations =  1.0

     total cpu time spent up to now is       15.4 secs

     total energy              =     -35.31043262 Ry
     estimated scf accuracy    <          2.1E-09 Ry

     iteration # 13     ecut=    70.00 Ry     beta= 0.05
     Davidson diagonalization with overlap
     ethr =  1.35E-11,  avg # of iterations =  2.0

     total cpu time spent up to now is       15.7 secs

     total energy              =     -35.31043262 Ry
     estimated scf accuracy    <          6.8E-11 Ry

     iteration # 14     ecut=    70.00 Ry     beta= 0.05
     Davidson diagonalization with overlap
     ethr =  8.55E-13,  avg # of iterations =  3.0

     total cpu time spent up to now is       16.0 secs

     total energy              =     -35.31043262 Ry
     estimated scf accuracy    <          1.2E-09 Ry

     iteration # 15     ecut=    70.00 Ry     beta= 0.05
     Davidson diagonalization with overlap
     ethr =  8.55E-13,  avg # of iterations =  2.0

     total cpu time spent up to now is       16.3 secs

     total energy              =     -35.31043262 Ry
     estimated scf accuracy    <          7.1E-10 Ry

     iteration # 16     ecut=    70.00 Ry     beta= 0.05
     Davidson diagonalization with overlap
     ethr =  8.55E-13,  avg # of iterations =  3.0

     total cpu time spent up to now is       16.6 secs

     total energy              =     -35.31043262 Ry
     estimated scf accuracy    <          1.9E-11 Ry

     iteration # 17     ecut=    70.00 Ry     beta= 0.05
     Davidson diagonalization with overlap
     ethr =  2.32E-13,  avg # of iterations =  3.0

     total cpu time spent up to now is       16.9 secs

     total energy              =     -35.31043262 Ry
     estimated scf accuracy    <          2.0E-10 Ry

     iteration # 18     ecut=    70.00 Ry     beta= 0.05
     Davidson diagonalization with overlap
     ethr =  2.32E-13,  avg # of iterations =  3.0

     total cpu time spent up to now is       17.2 secs

     total energy              =     -35.31043262 Ry
     estimated scf accuracy    <          2.1E-12 Ry

     iteration # 19     ecut=    70.00 Ry     beta= 0.05
     Davidson diagonalization with overlap
     ethr =  1.00E-13,  avg # of iterations =  1.0

     total cpu time spent up to now is       17.5 secs

     total energy              =     -35.31043262 Ry
     estimated scf accuracy    <          1.3E-12 Ry

     iteration # 20     ecut=    70.00 Ry     beta= 0.05
     Davidson diagonalization with overlap
     ethr =  1.00E-13,  avg # of iterations =  1.0

     total cpu time spent up to now is       17.7 secs

     total energy              =     -35.31043262 Ry
     estimated scf accuracy    <          1.8E-12 Ry

     iteration # 21     ecut=    70.00 Ry     beta= 0.05
     Davidson diagonalization with overlap
     ethr =  1.00E-13,  avg # of iterations =  1.0

     total cpu time spent up to now is       17.9 secs

     End of self-consistent calculation

          k = 0.0000 0.0000 0.0000 ( 39559 PWs)   bands (ev):

   -24.9619 -13.0300  -9.2925  -7.2554  -0.9901

     highest occupied, lowest unoccupied level (ev):    -7.2554   -0.9901

!    total energy              =     -35.31043262 Ry
     estimated scf accuracy    <          7.0E-14 Ry

     The total energy is the sum of the following terms:
     one-electron contribution =     -63.90825242 Ry
     hartree contribution      =      33.44350740 Ry
     xc contribution           =      -9.53690903 Ry
     ewald contribution        =       4.69122143 Ry

     convergence has been achieved in  21 iterations

     Forces acting on atoms (cartesian axes, Ry/au):

     atom    1 type  1   force =     0.00614591    0.00835419    0.00000000
     atom    2 type  1   force =    -0.00614241    0.00834918    0.00000000
     atom    3 type  2   force =    -0.00000350   -0.01670337    0.00000000

     Total force =     0.022226     Total SCF correction =     0.000000
     Energy error            =      1.3E-04 Ry
     Gradient error          =      1.7E-02 Ry/Bohr

     number of scf cycles    =   2
     number of bfgs steps    =   1

     energy             old  =     -35.3103017060 Ry
     energy             new  =     -35.3104326194 Ry

     CASE: energy            _new < energy            _old

     new trust radius        =       0.0094075042 bohr
     new conv_thr            =            1.3E-14 Ry


ATOMIC_POSITIONS (bohr)
H             9.9877697326        9.9963471425       10.0000000000
H            12.8751385463        9.9963442036       10.0000000000
O            11.4314564481       11.1166588439       10.0000000000



     Writing config-only to output data dir /opt/quantumespresso/results/h2o.save/
     NEW-OLD atomic charge density approx. for the potential

     negative rho (up, down):  4.312E-06 0.000E+00

     total cpu time spent up to now is       18.2 secs

     Self-consistent Calculation

     iteration #  1     ecut=    70.00 Ry     beta= 0.05
     Davidson diagonalization with overlap
     ethr =  1.00E-06,  avg # of iterations =  4.0

     negative rho (up, down):  4.023E-06 0.000E+00

     total cpu time spent up to now is       18.5 secs

     total energy              =     -35.31060623 Ry
     estimated scf accuracy    <       0.00009680 Ry

     iteration #  2     ecut=    70.00 Ry     beta= 0.05
     Davidson diagonalization with overlap
     ethr =  1.21E-06,  avg # of iterations =  1.0

     negative rho (up, down):  2.232E-06 0.000E+00

     total cpu time spent up to now is       18.7 secs

     total energy              =     -35.31057322 Ry
     estimated scf accuracy    <       0.00007280 Ry

     iteration #  3     ecut=    70.00 Ry     beta= 0.05
     Davidson diagonalization with overlap
     ethr =  9.10E-07,  avg # of iterations =  2.0

     negative rho (up, down):  1.475E-06 0.000E+00

     total cpu time spent up to now is       19.0 secs

     total energy              =     -35.31058414 Ry
     estimated scf accuracy    <       0.00000538 Ry

     iteration #  4     ecut=    70.00 Ry     beta= 0.05
     Davidson diagonalization with overlap
     ethr =  6.72E-08,  avg # of iterations =  2.0

     negative rho (up, down):  2.524E-07 0.000E+00

     total cpu time spent up to now is       19.2 secs

     total energy              =     -35.31058228 Ry
     estimated scf accuracy    <       0.00000467 Ry

     iteration #  5     ecut=    70.00 Ry     beta= 0.05
     Davidson diagonalization with overlap
     ethr =  5.83E-08,  avg # of iterations =  2.0

     negative rho (up, down):  2.543E-07 0.000E+00

     total cpu time spent up to now is       19.5 secs

     total energy              =     -35.31058318 Ry
     estimated scf accuracy    <       0.00000118 Ry

     iteration #  6     ecut=    70.00 Ry     beta= 0.05
     Davidson diagonalization with overlap
     ethr =  1.48E-08,  avg # of iterations =  2.0

     negative rho (up, down):  9.143E-08 0.000E+00

     total cpu time spent up to now is       19.7 secs

     total energy              =     -35.31058353 Ry
     estimated scf accuracy    <       0.00000028 Ry

     iteration #  7     ecut=    70.00 Ry     beta= 0.05
     Davidson diagonalization with overlap
     ethr =  3.48E-09,  avg # of iterations =  1.0

     total cpu time spent up to now is       20.0 secs

     total energy              =     -35.31058344 Ry
     estimated scf accuracy    <       0.00000023 Ry

     iteration #  8     ecut=    70.00 Ry     beta= 0.05
     Davidson diagonalization with overlap
     ethr =  2.81E-09,  avg # of iterations =  2.0

     total cpu time spent up to now is       20.3 secs

     total energy              =     -35.31058349 Ry
     estimated scf accuracy    <          5.0E-09 Ry

     iteration #  9     ecut=    70.00 Ry     beta= 0.05
     Davidson diagonalization with overlap
     ethr =  6.20E-11,  avg # of iterations =  2.0

     total cpu time spent up to now is       20.6 secs

     total energy              =     -35.31058349 Ry
     estimated scf accuracy    <          3.6E-09 Ry

     iteration # 10     ecut=    70.00 Ry     beta= 0.05
     Davidson diagonalization with overlap
     ethr =  4.52E-11,  avg # of iterations =  2.0

     total cpu time spent up to now is       20.9 secs

     total energy              =     -35.31058349 Ry
     estimated scf accuracy    <          3.9E-10 Ry

     iteration # 11     ecut=    70.00 Ry     beta= 0.05
     Davidson diagonalization with overlap
     ethr =  4.85E-12,  avg # of iterations =  2.0

     total cpu time spent up to now is       21.1 secs

     total energy              =     -35.31058349 Ry
     estimated scf accuracy    <          6.4E-11 Ry

     iteration # 12     ecut=    70.00 Ry     beta= 0.05
     Davidson diagonalization with overlap
     ethr =  8.03E-13,  avg # of iterations =  1.0

     total cpu time spent up to now is       21.4 secs

     total energy              =     -35.31058349 Ry
     estimated scf accuracy    <          5.6E-11 Ry

     iteration # 13     ecut=    70.00 Ry     beta= 0.05
     Davidson diagonalization with overlap
     ethr =  6.97E-13,  avg # of iterations =  2.0

     total cpu time spent up to now is       21.7 secs

     total energy              =     -35.31058349 Ry
     estimated scf accuracy    <          4.0E-11 Ry

     iteration # 14     ecut=    70.00 Ry     beta= 0.05
     Davidson diagonalization with overlap
     ethr =  5.03E-13,  avg # of iterations =  2.0

     total cpu time spent up to now is       22.0 secs

     total energy              =     -35.31058349 Ry
     estimated scf accuracy    <          8.7E-14 Ry

     iteration # 15     ecut=    70.00 Ry     beta= 0.05
     Davidson diagonalization with overlap
     ethr =  1.00E-13,  avg # of iterations =  1.0

     total cpu time spent up to now is       22.2 secs

     total energy              =     -35.31058349 Ry
     estimated scf accuracy    <          1.8E-13 Ry

     iteration # 16     ecut=    70.00 Ry     beta= 0.05
     Davidson diagonalization with overlap
     ethr =  1.00E-13,  avg # of iterations =  1.0

     total cpu time spent up to now is       22.5 secs

     total energy              =     -35.31058349 Ry
     estimated scf accuracy    <          6.0E-14 Ry

     iteration # 17     ecut=    70.00 Ry     beta= 0.05
     Davidson diagonalization with overlap
     ethr =  1.00E-13,  avg # of iterations =  1.0

     total cpu time spent up to now is       22.8 secs

     total energy              =     -35.31058349 Ry
     estimated scf accuracy    <          3.6E-14 Ry

     iteration # 18     ecut=    70.00 Ry     beta= 0.05
     Davidson diagonalization with overlap
     ethr =  1.00E-13,  avg # of iterations =  1.0

     total cpu time spent up to now is       23.0 secs

     total energy              =     -35.31058349 Ry
     estimated scf accuracy    <          4.7E-13 Ry

     iteration # 19     ecut=    70.00 Ry     beta= 0.05
     Davidson diagonalization with overlap
     ethr =  1.00E-13,  avg # of iterations =  1.0

     total cpu time spent up to now is       23.3 secs

     total energy              =     -35.31058349 Ry
     estimated scf accuracy    <          3.6E-14 Ry

     iteration # 20     ecut=    70.00 Ry     beta= 0.05
     Davidson diagonalization with overlap
     ethr =  1.00E-13,  avg # of iterations =  1.0

     total cpu time spent up to now is       23.5 secs

     End of self-consistent calculation

          k = 0.0000 0.0000 0.0000 ( 39559 PWs)   bands (ev):

   -25.0161 -13.1130  -9.2752  -7.2669  -0.9726

     highest occupied, lowest unoccupied level (ev):    -7.2669   -0.9726

!    total energy              =     -35.31058349 Ry
     estimated scf accuracy    <          5.5E-15 Ry

     The total energy is the sum of the following terms:
     one-electron contribution =     -64.04373432 Ry
     hartree contribution      =      33.50873236 Ry
     xc contribution           =      -9.54787903 Ry
     ewald contribution        =       4.77229751 Ry

     convergence has been achieved in  20 iterations

     Forces acting on atoms (cartesian axes, Ry/au):

     atom    1 type  1   force =    -0.00149837    0.00125494    0.00000000
     atom    2 type  1   force =     0.00149631    0.00125382    0.00000000
     atom    3 type  2   force =     0.00000206   -0.00250875    0.00000000

     Total force =     0.003732     Total SCF correction =     0.000000
     Energy error            =      1.5E-04 Ry
     Gradient error          =      2.5E-03 Ry/Bohr

     number of scf cycles    =   3
     number of bfgs steps    =   2

     energy             old  =     -35.3104326194 Ry
     energy             new  =     -35.3105834893 Ry

     CASE: energy            _new < energy            _old

     new trust radius        =       0.0026124819 bohr
     new conv_thr            =            1.5E-14 Ry


ATOMIC_POSITIONS (bohr)
H             9.9858248137        9.9976540406       10.0000000000
H            12.8770811573        9.9976497864       10.0000000000
O            11.4314587560       11.1140463630       10.0000000000



     Writing config-only to output data dir /opt/quantumespresso/results/h2o.save/
     NEW-OLD atomic charge density approx. for the potential

     negative rho (up, down):  1.204E-06 0.000E+00

     total cpu time spent up to now is       23.8 secs

     Self-consistent Calculation

     iteration #  1     ecut=    70.00 Ry     beta= 0.05
     Davidson diagonalization with overlap
     ethr =  1.00E-06,  avg # of iterations =  3.0

     Threshold (ethr) on eigenvalues was too large:
     Diagonalizing with lowered threshold

     Davidson diagonalization with overlap
     ethr =  2.51E-08,  avg # of iterations =  2.0

     negative rho (up, down):  1.115E-06 0.000E+00

     total cpu time spent up to now is       24.1 secs

     total energy              =     -35.31059584 Ry
     estimated scf accuracy    <       0.00000152 Ry

     iteration #  2     ecut=    70.00 Ry     beta= 0.05
     Davidson diagonalization with overlap
     ethr =  1.90E-08,  avg # of iterations =  1.0

     negative rho (up, down):  6.863E-07 0.000E+00

     total cpu time spent up to now is       24.4 secs

     total energy              =     -35.31059557 Ry
     estimated scf accuracy    <       0.00000117 Ry

     iteration #  3     ecut=    70.00 Ry     beta= 0.05
     Davidson diagonalization with overlap
     ethr =  1.47E-08,  avg # of iterations =  2.0

     negative rho (up, down):  2.960E-07 0.000E+00

     total cpu time spent up to now is       24.6 secs

     total energy              =     -35.31059560 Ry
     estimated scf accuracy    <       0.00000032 Ry

     iteration #  4     ecut=    70.00 Ry     beta= 0.05
     Davidson diagonalization with overlap
     ethr =  3.97E-09,  avg # of iterations =  2.0

     negative rho (up, down):  1.894E-08 0.000E+00

     total cpu time spent up to now is       24.9 secs

     total energy              =     -35.31059562 Ry
     estimated scf accuracy    <       0.00000020 Ry

     iteration #  5     ecut=    70.00 Ry     beta= 0.05
     Davidson diagonalization with overlap
     ethr =  2.55E-09,  avg # of iterations =  1.0

     total cpu time spent up to now is       25.1 secs

     total energy              =     -35.31059562 Ry
     estimated scf accuracy    <       0.00000003 Ry

     iteration #  6     ecut=    70.00 Ry     beta= 0.05
     Davidson diagonalization with overlap
     ethr =  4.01E-10,  avg # of iterations =  2.0

     total cpu time spent up to now is       25.4 secs

     total energy              =     -35.31059563 Ry
     estimated scf accuracy    <       0.00000002 Ry

     iteration #  7     ecut=    70.00 Ry     beta= 0.05
     Davidson diagonalization with overlap
     ethr =  1.89E-10,  avg # of iterations =  2.0

     total cpu time spent up to now is       25.6 secs

     total energy              =     -35.31059563 Ry
     estimated scf accuracy    <       0.00000002 Ry

     iteration #  8     ecut=    70.00 Ry     beta= 0.05
     Davidson diagonalization with overlap
     ethr =  1.89E-10,  avg # of iterations =  2.0

     total cpu time spent up to now is       25.9 secs

     total energy              =     -35.31059563 Ry
     estimated scf accuracy    <          1.3E-09 Ry

     iteration #  9     ecut=    70.00 Ry     beta= 0.05
     Davidson diagonalization with overlap
     ethr =  1.68E-11,  avg # of iterations =  2.0

     total cpu time spent up to now is       26.2 secs

     total energy              =     -35.31059563 Ry
     estimated scf accuracy    <          3.1E-10 Ry

     iteration # 10     ecut=    70.00 Ry     beta= 0.05
     Davidson diagonalization with overlap
     ethr =  3.88E-12,  avg # of iterations =  2.0

     total cpu time spent up to now is       26.5 secs

     total energy              =     -35.31059563 Ry
     estimated scf accuracy    <          1.2E-10 Ry

     iteration # 11     ecut=    70.00 Ry     beta= 0.05
     Davidson diagonalization with overlap
     ethr =  1.54E-12,  avg # of iterations =  1.0

     total cpu time spent up to now is       26.8 secs

     total energy              =     -35.31059563 Ry
     estimated scf accuracy    <          3.4E-11 Ry

     iteration # 12     ecut=    70.00 Ry     beta= 0.05
     Davidson diagonalization with overlap
     ethr =  4.27E-13,  avg # of iterations =  1.0

     total cpu time spent up to now is       27.0 secs

     total energy              =     -35.31059563 Ry
     estimated scf accuracy    <          3.1E-11 Ry

     iteration # 13     ecut=    70.00 Ry     beta= 0.05
     Davidson diagonalization with overlap
     ethr =  3.82E-13,  avg # of iterations =  1.0

     total cpu time spent up to now is       27.3 secs

     total energy              =     -35.31059563 Ry
     estimated scf accuracy    <          2.7E-11 Ry

     iteration # 14     ecut=    70.00 Ry     beta= 0.05
     Davidson diagonalization with overlap
     ethr =  3.38E-13,  avg # of iterations =  2.0

     total cpu time spent up to now is       27.6 secs

     total energy              =     -35.31059563 Ry
     estimated scf accuracy    <          5.7E-14 Ry

     iteration # 15     ecut=    70.00 Ry     beta= 0.05
     Davidson diagonalization with overlap
     ethr =  1.00E-13,  avg # of iterations =  1.0

     total cpu time spent up to now is       27.8 secs

     End of self-consistent calculation

          k = 0.0000 0.0000 0.0000 ( 39559 PWs)   bands (ev):

   -25.0159 -13.1302  -9.2629  -7.2667  -0.9707

     highest occupied, lowest unoccupied level (ev):    -7.2667   -0.9707

!    total energy              =     -35.31059563 Ry
     estimated scf accuracy    <          1.5E-14 Ry

     The total energy is the sum of the following terms:
     one-electron contribution =     -64.05303948 Ry
     hartree contribution      =      33.51358938 Ry
     xc contribution           =      -9.54870188 Ry
     ewald contribution        =       4.77755635 Ry

     convergence has been achieved in  15 iterations

     Forces acting on atoms (cartesian axes, Ry/au):

     atom    1 type  1   force =    -0.00152491    0.00034785    0.00000000
     atom    2 type  1   force =     0.00152672    0.00034375    0.00000000
     atom    3 type  2   force =    -0.00000181   -0.00069160    0.00000000

     Total force =     0.002318     Total SCF correction =     0.000000
     Energy error            =      1.2E-05 Ry
     Gradient error          =      1.5E-03 Ry/Bohr

     number of scf cycles    =   4
     number of bfgs steps    =   3

     energy             old  =     -35.3105834893 Ry
     energy             new  =     -35.3105956327 Ry

     CASE: energy            _new < energy            _old

     new trust radius        =       0.0028737301 bohr
     new conv_thr            =            1.0E-14 Ry


ATOMIC_POSITIONS (bohr)
H             9.9831652326        9.9987425961       10.0000000000
H            12.8797430721        9.9987316832       10.0000000000
O            11.4314564223       11.1118759107       10.0000000000



     Writing config-only to output data dir /opt/quantumespresso/results/h2o.save/
     NEW-OLD atomic charge density approx. for the potential

     negative rho (up, down):  1.603E-06 0.000E+00

     total cpu time spent up to now is       28.0 secs

     Self-consistent Calculation

     iteration #  1     ecut=    70.00 Ry     beta= 0.05
     Davidson diagonalization with overlap
     ethr =  1.00E-06,  avg # of iterations =  3.0

     Threshold (ethr) on eigenvalues was too large:
     Diagonalizing with lowered threshold

     Davidson diagonalization with overlap
     ethr =  9.55E-09,  avg # of iterations =  3.0

     negative rho (up, down):  1.488E-06 0.000E+00

     total cpu time spent up to now is       28.4 secs

     total energy              =     -35.31060280 Ry
     estimated scf accuracy    <       0.00000063 Ry

     iteration #  2     ecut=    70.00 Ry     beta= 0.05
     Davidson diagonalization with overlap
     ethr =  7.93E-09,  avg # of iterations =  1.0

     negative rho (up, down):  1.967E-07 0.000E+00

     total cpu time spent up to now is       28.7 secs

     total energy              =     -35.31060277 Ry
     estimated scf accuracy    <       0.00000057 Ry

     iteration #  3     ecut=    70.00 Ry     beta= 0.05
     Davidson diagonalization with overlap
     ethr =  7.13E-09,  avg # of iterations =  1.0

     negative rho (up, down):  5.239E-08 0.000E+00

     total cpu time spent up to now is       28.9 secs

     total energy              =     -35.31060281 Ry
     estimated scf accuracy    <       0.00000004 Ry

     iteration #  4     ecut=    70.00 Ry     beta= 0.05
     Davidson diagonalization with overlap
     ethr =  4.40E-10,  avg # of iterations =  2.0

     negative rho (up, down):  3.341E-08 0.000E+00

     total cpu time spent up to now is       29.1 secs

     total energy              =     -35.31060280 Ry
     estimated scf accuracy    <       0.00000002 Ry

     iteration #  5     ecut=    70.00 Ry     beta= 0.05
     Davidson diagonalization with overlap
     ethr =  2.34E-10,  avg # of iterations =  2.0

     total cpu time spent up to now is       29.4 secs

     total energy              =     -35.31060281 Ry
     estimated scf accuracy    <          5.2E-09 Ry

     iteration #  6     ecut=    70.00 Ry     beta= 0.05
     Davidson diagonalization with overlap
     ethr =  6.44E-11,  avg # of iterations =  2.0

     total cpu time spent up to now is       29.7 secs

     total energy              =     -35.31060281 Ry
     estimated scf accuracy    <          3.6E-09 Ry

     iteration #  7     ecut=    70.00 Ry     beta= 0.05
     Davidson diagonalization with overlap
     ethr =  4.53E-11,  avg # of iterations =  2.0

     total cpu time spent up to now is       29.9 secs

     total energy              =     -35.31060281 Ry
     estimated scf accuracy    <          1.4E-09 Ry

     iteration #  8     ecut=    70.00 Ry     beta= 0.05
     Davidson diagonalization with overlap
     ethr =  1.74E-11,  avg # of iterations =  1.0

     total cpu time spent up to now is       30.2 secs

     total energy              =     -35.31060281 Ry
     estimated scf accuracy    <          8.5E-10 Ry

     iteration #  9     ecut=    70.00 Ry     beta= 0.05
     Davidson diagonalization with overlap
     ethr =  1.07E-11,  avg # of iterations =  1.0

     total cpu time spent up to now is       30.4 secs

     total energy              =     -35.31060281 Ry
     estimated scf accuracy    <          4.6E-10 Ry

     iteration # 10     ecut=    70.00 Ry     beta= 0.05
     Davidson diagonalization with overlap
     ethr =  5.75E-12,  avg # of iterations =  2.0

     total cpu time spent up to now is       30.7 secs

     total energy              =     -35.31060281 Ry
     estimated scf accuracy    <          3.9E-11 Ry

     iteration # 11     ecut=    70.00 Ry     beta= 0.05
     Davidson diagonalization with overlap
     ethr =  4.86E-13,  avg # of iterations =  2.0

     total cpu time spent up to now is       31.0 secs

     total energy              =     -35.31060281 Ry
     estimated scf accuracy    <          3.8E-13 Ry

     iteration # 12     ecut=    70.00 Ry     beta= 0.05
     Davidson diagonalization with overlap
     ethr =  1.00E-13,  avg # of iterations =  1.0

     total cpu time spent up to now is       31.3 secs

     total energy              =     -35.31060281 Ry
     estimated scf accuracy    <          5.8E-13 Ry

     iteration # 13     ecut=    70.00 Ry     beta= 0.05
     Davidson diagonalization with overlap
     ethr =  1.00E-13,  avg # of iterations =  1.0

     total cpu time spent up to now is       31.5 secs

     total energy              =     -35.31060281 Ry
     estimated scf accuracy    <          3.3E-13 Ry

     iteration # 14     ecut=    70.00 Ry     beta= 0.05
     Davidson diagonalization with overlap
     ethr =  1.00E-13,  avg # of iterations =  1.0

     total cpu time spent up to now is       31.8 secs

     total energy              =     -35.31060281 Ry
     estimated scf accuracy    <          4.8E-13 Ry

     iteration # 15     ecut=    70.00 Ry     beta= 0.05
     Davidson diagonalization with overlap
     ethr =  1.00E-13,  avg # of iterations =  2.0

     total cpu time spent up to now is       32.1 secs

     total energy              =     -35.31060281 Ry
     estimated scf accuracy    <          2.1E-12 Ry

     iteration # 16     ecut=    70.00 Ry     beta= 0.05
     Davidson diagonalization with overlap
     ethr =  1.00E-13,  avg # of iterations =  1.0

     total cpu time spent up to now is       32.4 secs

     total energy              =     -35.31060281 Ry
     estimated scf accuracy    <          1.7E-12 Ry

     iteration # 17     ecut=    70.00 Ry     beta= 0.05
     Davidson diagonalization with overlap
     ethr =  1.00E-13,  avg # of iterations =  1.0

     total cpu time spent up to now is       32.6 secs

     total energy              =     -35.31060281 Ry
     estimated scf accuracy    <          1.6E-12 Ry

     iteration # 18     ecut=    70.00 Ry     beta= 0.05
     Davidson diagonalization with overlap
     ethr =  1.00E-13,  avg # of iterations =  1.0

     total cpu time spent up to now is       32.9 secs

     total energy              =     -35.31060281 Ry
     estimated scf accuracy    <          1.9E-12 Ry

     iteration # 19     ecut=    70.00 Ry     beta= 0.05
     Davidson diagonalization with overlap
     ethr =  1.00E-13,  avg # of iterations =  1.0

     total cpu time spent up to now is       33.2 secs

     total energy              =     -35.31060281 Ry
     estimated scf accuracy    <          1.6E-12 Ry

     iteration # 20     ecut=    70.00 Ry     beta= 0.05
     Davidson diagonalization with overlap
     ethr =  1.00E-13,  avg # of iterations =  1.0

     total cpu time spent up to now is       33.5 secs

     total energy              =     -35.31060281 Ry
     estimated scf accuracy    <          6.2E-13 Ry

     iteration # 21     ecut=    70.00 Ry     beta= 0.05
     Davidson diagonalization with overlap
     ethr =  1.00E-13,  avg # of iterations =  1.0

     total cpu time spent up to now is       33.7 secs

     total energy              =     -35.31060281 Ry
     estimated scf accuracy    <          4.2E-14 Ry

     iteration # 22     ecut=    70.00 Ry     beta= 0.05
     Davidson diagonalization with overlap
     ethr =  1.00E-13,  avg # of iterations =  1.0

     total cpu time spent up to now is       34.0 secs

     total energy              =     -35.31060281 Ry
     estimated scf accuracy    <          4.1E-14 Ry

     iteration # 23     ecut=    70.00 Ry     beta= 0.05
     Davidson diagonalization with overlap
     ethr =  1.00E-13,  avg # of iterations =  1.0

     total cpu time spent up to now is       34.3 secs

     total energy              =     -35.31060281 Ry
     estimated scf accuracy    <          1.1E-14 Ry

     iteration # 24     ecut=    70.00 Ry     beta= 0.05
     Davidson diagonalization with overlap
     ethr =  1.00E-13,  avg # of iterations =  1.0

     total cpu time spent up to now is       34.5 secs

     total energy              =     -35.31060281 Ry
     estimated scf accuracy    <          2.7E-14 Ry

     iteration # 25     ecut=    70.00 Ry     beta= 0.05
     Davidson diagonalization with overlap
     ethr =  1.00E-13,  avg # of iterations =  1.0

     total cpu time spent up to now is       34.7 secs

     End of self-consistent calculation

          k = 0.0000 0.0000 0.0000 ( 39559 PWs)   bands (ev):

   -25.0099 -13.1422  -9.2501  -7.2653  -0.9701

     highest occupied, lowest unoccupied level (ev):    -7.2653   -0.9701

!    total energy              =     -35.31060281 Ry
     estimated scf accuracy    <          4.7E-15 Ry

     The total energy is the sum of the following terms:
     one-electron contribution =     -64.05014112 Ry
     hartree contribution      =      33.51264969 Ry
     xc contribution           =      -9.54854849 Ry
     ewald contribution        =       4.77543711 Ry

     convergence has been achieved in  25 iterations

     Forces acting on atoms (cartesian axes, Ry/au):

     atom    1 type  1   force =    -0.00075427   -0.00000291    0.00000000
     atom    2 type  1   force =     0.00074826   -0.00000094    0.00000000
     atom    3 type  2   force =     0.00000600    0.00000385    0.00000000

     Total force =     0.001062     Total SCF correction =     0.000000
     Energy error            =      7.2E-06 Ry
     Gradient error          =      7.5E-04 Ry/Bohr

     bfgs converged in   5 scf cycles and   4 bfgs steps
     (criteria: energy <  1.0E-04 Ry, force <  1.0E-03 Ry/Bohr)

     End of BFGS Geometry Optimization

     Final energy             =     -35.3106028099 Ry

     File /opt/quantumespresso/results/h2o.bfgs deleted, as requested
Begin final coordinates

ATOMIC_POSITIONS (bohr)
H             9.9831652326        9.9987425961       10.0000000000
H            12.8797430721        9.9987316832       10.0000000000
O            11.4314564223       11.1118759107       10.0000000000
End final coordinates



     Writing all to output data dir /opt/quantumespresso/results/h2o.save/
 
     init_run     :      0.68s CPU      0.88s WALL (       1 calls)
     electrons    :     31.71s CPU     32.76s WALL (       5 calls)
     update_pot   :      0.95s CPU      0.64s WALL (       4 calls)
     forces       :      0.33s CPU      0.31s WALL (       5 calls)

     Called by init_run:
     wfcinit      :      0.38s CPU      0.54s WALL (       1 calls)
                                        0.54s GPU  (       1 calls)
     potinit      :      0.13s CPU      0.11s WALL (       1 calls)
     hinit0       :      0.10s CPU      0.12s WALL (       1 calls)

     Called by electrons:
     c_bands      :      9.67s CPU     10.56s WALL (     120 calls)
     sum_band     :      7.52s CPU      7.69s WALL (     120 calls)
     v_of_rho     :      4.98s CPU      4.77s WALL (     123 calls)
     mix_rho      :      8.67s CPU      8.75s WALL (     120 calls)

     Called by c_bands:
     init_us_2    :      0.03s CPU      0.04s WALL (     241 calls)
     init_us_2:gp :      0.02s CPU      0.04s WALL (     241 calls)
     regterg      :      8.90s CPU      8.99s WALL (     120 calls)

     Called by *egterg:
     rdiaghg      :      0.14s CPU      0.17s WALL (     334 calls)
                                        0.16s GPU  (     334 calls)
     h_psi        :      7.70s CPU      7.91s WALL (     341 calls)
                                        7.86s GPU  (     341 calls)
     g_psi        :      0.00s CPU      0.06s WALL (     220 calls)
                                        0.06s GPU  (     220 calls)

     Called by h_psi:
     h_psi:calbec :      0.22s CPU      0.75s WALL (     341 calls)
                                        0.74s GPU  (     341 calls)
     vloc_psi     :      6.72s CPU      6.87s WALL (     341 calls)
                                        6.81s GPU  (     341 calls)
     add_vuspsi   :      0.03s CPU      0.16s WALL (     341 calls)
                                        0.14s GPU  (     341 calls)

     General routines
     calbec       :      0.21s CPU      0.33s WALL (     361 calls)
     fft          :      7.04s CPU      7.13s WALL (     390 calls)
                                        0.07s GPU  (      19 calls)
     ffts         :      2.47s CPU      2.48s WALL (     120 calls)
     fftw         :      0.10s CPU      8.07s WALL (    1042 calls)
                                        7.16s GPU  (    1042 calls)
 
 
     PWSCF        :     33.87s CPU     34.85s WALL

 
   This run was terminated on:  16:27: 7  10Apr2023            

=------------------------------------------------------------------------------=
   JOB DONE.
=------------------------------------------------------------------------------=
[mpiexec@fedora] Sending Ctrl-C to processes as requested
[mpiexec@fedora] Press Ctrl-C again to force abort

===================================================================================
=   BAD TERMINATION OF ONE OF YOUR APPLICATION PROCESSES
=   RANK 1 PID 48726 RUNNING AT fedora
=   KILLED BY SIGNAL: 2 (Interrupt)
===================================================================================

===================================================================================
=   BAD TERMINATION OF ONE OF YOUR APPLICATION PROCESSES
=   RANK 2 PID 48727 RUNNING AT fedora
=   KILLED BY SIGNAL: 2 (Interrupt)
===================================================================================

===================================================================================
=   BAD TERMINATION OF ONE OF YOUR APPLICATION PROCESSES
=   RANK 3 PID 48728 RUNNING AT fedora
=   KILLED BY SIGNAL: 2 (Interrupt)
===================================================================================

===================================================================================
=   BAD TERMINATION OF ONE OF YOUR APPLICATION PROCESSES
=   RANK 4 PID 48729 RUNNING AT fedora
=   KILLED BY SIGNAL: 2 (Interrupt)
===================================================================================

===================================================================================
=   BAD TERMINATION OF ONE OF YOUR APPLICATION PROCESSES
=   RANK 5 PID 48730 RUNNING AT fedora
=   KILLED BY SIGNAL: 2 (Interrupt)
===================================================================================
