
     Program PWSCF v.7.1 starts on 10Apr2023 at 15:59:52 

     This program is part of the open-source Quantum ESPRESSO suite
     for quantum simulation of materials; please cite
         "P. Giannozzi et al., J. Phys.:Condens. Matter 21 395502 (2009);
         "P. Giannozzi et al., J. Phys.:Condens. Matter 29 465901 (2017);
         "P. Giannozzi et al., J. Chem. Phys. 152 154105 (2020);
          URL http://www.quantum-espresso.org", 
     in publications or presentations arising from this work. More details at
     http://www.quantum-espresso.org/quote

     Parallel version (MPI), running on    12 processors

     MPI processes distributed on     1 nodes
     20650 MiB available memory on the printing compute node when the environment starts
 
     Waiting for input...
     Reading input from standard input

     Current dimensions of program PWSCF are:
     Max number of different atomic species (ntypx) = 10
     Max number of k-points (npk) =  40000
     Max angular momentum in pseudopotentials (lmaxx) =  4

     File /opt/quantumespresso/results/h2o.update deleted, as requested

     File /opt/quantumespresso/results/h2o.bfgs deleted, as requested

     gamma-point specific algorithms are used
 
     R & G space division:  proc/nbgrp/npool/nimage =      12
     Subspace diagonalization in iterative solution of the eigenvalue problem:
     a serial algorithm will be used

 
     Parallelization info
     --------------------
     sticks:   dense  smooth     PW     G-vecs:    dense   smooth      PW
     Min        6681    6681   1667              1424074  1424074  177980
     Max        6684    6684   1670              1424082  1424082  177990
     Sum       80189   80189  20029             17088947 17088947 2135811
 
     Using Slab Decomposition
 


     bravais-lattice index     =            1
     lattice parameter (alat)  =      60.0000  a.u.
     unit-cell volume          =  216000.0000 (a.u.)^3
     number of atoms/cell      =            3
     number of atomic types    =            2
     number of electrons       =         8.00
     number of Kohn-Sham states=            5
     kinetic-energy cutoff     =      70.0000  Ry
     charge density cutoff     =     280.0000  Ry
     scf convergence threshold =      1.0E-12
     mixing beta               =       0.0500
     number of iterations used =            8  plain     mixing
     energy convergence thresh.=      1.0E-04
     force convergence thresh. =      1.0E-03
     Exchange-correlation= SLA  PW   NOGX NOGC
                           (   1   4   0   0   0   0   0)
     nstep                     =           50


     celldm(1)=  60.000000  celldm(2)=   0.000000  celldm(3)=   0.000000
     celldm(4)=   0.000000  celldm(5)=   0.000000  celldm(6)=   0.000000

     crystal axes: (cart. coord. in units of alat)
               a(1) = (   1.000000   0.000000   0.000000 )  
               a(2) = (   0.000000   1.000000   0.000000 )  
               a(3) = (   0.000000   0.000000   1.000000 )  

     reciprocal axes: (cart. coord. in units 2 pi/alat)
               b(1) = (  1.000000  0.000000  0.000000 )  
               b(2) = (  0.000000  1.000000  0.000000 )  
               b(3) = (  0.000000  0.000000  1.000000 )  


     PseudoPot. # 1 for H  read from file:
     /opt/quantumespresso/pseudo_potenzials/H.upf
     MD5 check sum: 785d664e2740b342582c379770e72c80
     Pseudo is Norm-conserving, Zval =  1.0
     Generated using ONCVPSP code by D. R. Hamann
     Using radial grid of 1180 points,  3 beta functions with: 
                l(1) =   0
                l(2) =   0
                l(3) =   1

     PseudoPot. # 2 for O  read from file:
     /opt/quantumespresso/pseudo_potenzials/O.upf
     MD5 check sum: 86ed389b6a5065e60c3f64c68a612de9
     Pseudo is Norm-conserving + core correction, Zval =  6.0
     Generated using ONCVPSP code by D. R. Hamann
     Using radial grid of  926 points,  5 beta functions with: 
                l(1) =   0
                l(2) =   0
                l(3) =   1
                l(4) =   1
                l(5) =   2

     atomic species   valence    mass     pseudopotential
        H              1.00     1.00000     H ( 1.00)
        O              6.00    16.00000     O ( 1.00)

      2 Sym. Ops. (no inversion) found ( 1 have fractional translation)



   Cartesian axes

     site n.     atom                  positions (alat units)
         1           H   tau(   1) = (   0.1666667   0.1666667   0.1666667  )
         2           H   tau(   2) = (   0.2143818   0.1666667   0.1666667  )
         3           O   tau(   3) = (   0.1905242   0.1851558   0.1666667  )

     number of k points=     1
                       cart. coord. in units 2pi/alat
        k(    1) = (   0.0000000   0.0000000   0.0000000), wk =   2.0000000

     Dense  grid:  8544474 G-vectors     FFT dimensions: ( 320, 320, 324)

     Estimated max dynamical RAM per process >     574.76 MB

     Estimated total dynamical RAM >       6.74 GB

     Initial potential from superposition of free atoms

     starting charge       8.0000, renormalised to       8.0000

     negative rho (up, down):  8.630E-04 0.000E+00
     Starting wfcs are    6 randomized atomic wfcs

     total cpu time spent up to now is       18.7 secs

     Self-consistent Calculation

     iteration #  1     ecut=    70.00 Ry     beta= 0.05
     Davidson diagonalization with overlap
     ethr =  1.00E-02,  avg # of iterations =  3.0

     negative rho (up, down):  8.190E-04 0.000E+00

     total cpu time spent up to now is       27.8 secs

     total energy              =     -35.43825589 Ry
     estimated scf accuracy    <       0.50486490 Ry

     iteration #  2     ecut=    70.00 Ry     beta= 0.05
     Davidson diagonalization with overlap
     ethr =  6.31E-03,  avg # of iterations =  1.0

     negative rho (up, down):  4.826E-04 0.000E+00

     total cpu time spent up to now is       35.1 secs

     total energy              =     -35.23084401 Ry
     estimated scf accuracy    <       0.39769173 Ry

     iteration #  3     ecut=    70.00 Ry     beta= 0.05
     Davidson diagonalization with overlap
     ethr =  4.97E-03,  avg # of iterations =  2.0

     negative rho (up, down):  4.825E-04 0.000E+00

     total cpu time spent up to now is       43.4 secs

     total energy              =     -35.31743960 Ry
     estimated scf accuracy    <       0.02561876 Ry

     iteration #  4     ecut=    70.00 Ry     beta= 0.05
     Davidson diagonalization with overlap
     ethr =  3.20E-04,  avg # of iterations =  2.0

     negative rho (up, down):  1.342E-05 0.000E+00

     total cpu time spent up to now is       51.3 secs

     total energy              =     -35.34029858 Ry
     estimated scf accuracy    <       0.02281446 Ry

     iteration #  5     ecut=    70.00 Ry     beta= 0.05
     Davidson diagonalization with overlap
     ethr =  2.85E-04,  avg # of iterations =  3.0

     negative rho (up, down):  2.860E-05 0.000E+00

     total cpu time spent up to now is       61.8 secs

     total energy              =     -35.24779463 Ry
     estimated scf accuracy    <       0.33106060 Ry

     iteration #  6     ecut=    70.00 Ry     beta= 0.05
     Davidson diagonalization with overlap
     ethr =  2.85E-04,  avg # of iterations =  3.0

     negative rho (up, down):  2.887E-05 0.000E+00

     total cpu time spent up to now is       72.2 secs

     total energy              =     -35.30993479 Ry
     estimated scf accuracy    <       0.00012566 Ry

     iteration #  7     ecut=    70.00 Ry     beta= 0.05
     Davidson diagonalization with overlap
     ethr =  1.57E-06,  avg # of iterations =  8.0

     negative rho (up, down):  2.396E-05 0.000E+00

     total cpu time spent up to now is       85.0 secs

     total energy              =     -35.31009353 Ry
     estimated scf accuracy    <       0.00009248 Ry

     iteration #  8     ecut=    70.00 Ry     beta= 0.05
     Davidson diagonalization with overlap
     ethr =  1.16E-06,  avg # of iterations =  1.0

     negative rho (up, down):  1.657E-05 0.000E+00

     total cpu time spent up to now is       92.8 secs

     total energy              =     -35.31019296 Ry
     estimated scf accuracy    <       0.00013139 Ry

     iteration #  9     ecut=    70.00 Ry     beta= 0.05
     Davidson diagonalization with overlap
     ethr =  1.16E-06,  avg # of iterations =  2.0

     negative rho (up, down):  1.800E-06 0.000E+00

     total cpu time spent up to now is      101.9 secs

     total energy              =     -35.30981747 Ry
     estimated scf accuracy    <       0.00067845 Ry

     iteration # 10     ecut=    70.00 Ry     beta= 0.05
     Davidson diagonalization with overlap
     ethr =  1.16E-06,  avg # of iterations =  3.0

     negative rho (up, down):  1.324E-06 0.000E+00

     total cpu time spent up to now is      112.7 secs

     total energy              =     -35.31029839 Ry
     estimated scf accuracy    <       0.00072117 Ry

     iteration # 11     ecut=    70.00 Ry     beta= 0.05
     Davidson diagonalization with overlap
     ethr =  1.16E-06,  avg # of iterations =  1.0

     negative rho (up, down):  1.573E-06 0.000E+00

     total cpu time spent up to now is      120.9 secs

     total energy              =     -35.31034353 Ry
     estimated scf accuracy    <       0.00079596 Ry

     iteration # 12     ecut=    70.00 Ry     beta= 0.05
     Davidson diagonalization with overlap
     ethr =  1.16E-06,  avg # of iterations =  1.0

     negative rho (up, down):  2.611E-06 0.000E+00

     total cpu time spent up to now is      129.0 secs

     total energy              =     -35.31051803 Ry
     estimated scf accuracy    <       0.00096190 Ry

     iteration # 13     ecut=    70.00 Ry     beta= 0.05
     Davidson diagonalization with overlap
     ethr =  1.16E-06,  avg # of iterations =  2.0

     negative rho (up, down):  3.993E-06 0.000E+00

     total cpu time spent up to now is      138.2 secs

     total energy              =     -35.31068847 Ry
     estimated scf accuracy    <       0.00162113 Ry

     iteration # 14     ecut=    70.00 Ry     beta= 0.05
     Davidson diagonalization with overlap
     ethr =  1.16E-06,  avg # of iterations =  2.0

     negative rho (up, down):  3.579E-06 0.000E+00

     total cpu time spent up to now is      146.9 secs

     total energy              =     -35.31038903 Ry
     estimated scf accuracy    <       0.00218192 Ry

     iteration # 15     ecut=    70.00 Ry     beta= 0.05
     Davidson diagonalization with overlap
     ethr =  1.16E-06,  avg # of iterations =  2.0

     negative rho (up, down):  3.505E-07 0.000E+00

     total cpu time spent up to now is      156.2 secs

     total energy              =     -35.30976513 Ry
     estimated scf accuracy    <       0.00125606 Ry

     iteration # 16     ecut=    70.00 Ry     beta= 0.05
     Davidson diagonalization with overlap
     ethr =  1.16E-06,  avg # of iterations =  3.0

     negative rho (up, down):  2.024E-07 0.000E+00

     total cpu time spent up to now is      166.9 secs

     total energy              =     -35.31005716 Ry
     estimated scf accuracy    <       0.00003531 Ry

     iteration # 17     ecut=    70.00 Ry     beta= 0.05
     Davidson diagonalization with overlap
     ethr =  4.41E-07,  avg # of iterations =  2.0

     negative rho (up, down):  6.623E-08 0.000E+00

     total cpu time spent up to now is      175.9 secs

     total energy              =     -35.31005920 Ry
     estimated scf accuracy    <       0.00000391 Ry

     iteration # 18     ecut=    70.00 Ry     beta= 0.05
     Davidson diagonalization with overlap
     ethr =  4.88E-08,  avg # of iterations =  2.0

     negative rho (up, down):  3.320E-07 0.000E+00

     total cpu time spent up to now is      185.4 secs

     total energy              =     -35.31006039 Ry
     estimated scf accuracy    <       0.00000009 Ry

     iteration # 19     ecut=    70.00 Ry     beta= 0.05
     Davidson diagonalization with overlap
     ethr =  1.13E-09,  avg # of iterations =  3.0

     total cpu time spent up to now is      195.7 secs

     total energy              =     -35.31006148 Ry
     estimated scf accuracy    <       0.00000400 Ry

     iteration # 20     ecut=    70.00 Ry     beta= 0.05
     Davidson diagonalization with overlap
     ethr =  1.13E-09,  avg # of iterations =  2.0

     total cpu time spent up to now is      204.7 secs

     total energy              =     -35.31005942 Ry
     estimated scf accuracy    <       0.00000446 Ry

     iteration # 21     ecut=    70.00 Ry     beta= 0.05
     Davidson diagonalization with overlap
     ethr =  1.13E-09,  avg # of iterations =  4.0

     negative rho (up, down):  1.362E-08 0.000E+00

     total cpu time spent up to now is      215.5 secs

     total energy              =     -35.31006017 Ry
     estimated scf accuracy    <          7.8E-09 Ry

     iteration # 22     ecut=    70.00 Ry     beta= 0.05
     Davidson diagonalization with overlap
     ethr =  9.76E-11,  avg # of iterations =  2.0

     total cpu time spent up to now is      224.8 secs

     total energy              =     -35.31006016 Ry
     estimated scf accuracy    <       0.00000004 Ry

     iteration # 23     ecut=    70.00 Ry     beta= 0.05
     Davidson diagonalization with overlap
     ethr =  9.76E-11,  avg # of iterations =  3.0

     total cpu time spent up to now is      236.0 secs

     total energy              =     -35.31006016 Ry
     estimated scf accuracy    <       0.00000006 Ry

     iteration # 24     ecut=    70.00 Ry     beta= 0.05
     Davidson diagonalization with overlap
     ethr =  9.76E-11,  avg # of iterations =  3.0

     total cpu time spent up to now is      246.4 secs

     total energy              =     -35.31006017 Ry
     estimated scf accuracy    <          4.9E-10 Ry

     iteration # 25     ecut=    70.00 Ry     beta= 0.05
     Davidson diagonalization with overlap
     ethr =  6.11E-12,  avg # of iterations =  3.0

     total cpu time spent up to now is      256.8 secs

     total energy              =     -35.31006017 Ry
     estimated scf accuracy    <          6.6E-10 Ry

     iteration # 26     ecut=    70.00 Ry     beta= 0.05
     Davidson diagonalization with overlap
     ethr =  6.11E-12,  avg # of iterations =  2.0

     total cpu time spent up to now is      266.3 secs

     total energy              =     -35.31006017 Ry
     estimated scf accuracy    <          1.2E-11 Ry

     iteration # 27     ecut=    70.00 Ry     beta= 0.05
     Davidson diagonalization with overlap
     ethr =  1.55E-13,  avg # of iterations =  3.0

     total cpu time spent up to now is      276.0 secs

     total energy              =     -35.31006017 Ry
     estimated scf accuracy    <          4.4E-11 Ry

     iteration # 28     ecut=    70.00 Ry     beta= 0.05
     Davidson diagonalization with overlap
     ethr =  1.55E-13,  avg # of iterations =  3.0

     total cpu time spent up to now is      285.6 secs

     total energy              =     -35.31006017 Ry
     estimated scf accuracy    <          1.7E-11 Ry

     iteration # 29     ecut=    70.00 Ry     beta= 0.05
     Davidson diagonalization with overlap
     ethr =  1.55E-13,  avg # of iterations =  2.0

     total cpu time spent up to now is      292.6 secs

     End of self-consistent calculation

          k = 0.0000 0.0000 0.0000 (****** PWs)   bands (ev):

   -25.2119 -13.2981  -9.3839  -7.3858  -0.9683

     highest occupied, lowest unoccupied level (ev):    -7.3858   -0.9683

!    total energy              =     -35.31006017 Ry
     estimated scf accuracy    <          2.6E-13 Ry

     The total energy is the sum of the following terms:
     one-electron contribution =     -76.24814309 Ry
     hartree contribution      =      39.57677444 Ry
     xc contribution           =      -9.56410011 Ry
     ewald contribution        =      10.92540860 Ry

     convergence has been achieved in  29 iterations

     Forces acting on atoms (cartesian axes, Ry/au):

     atom    1 type  1   force =    -0.01549560   -0.00821818    0.00000000
     atom    2 type  1   force =     0.01549448   -0.00821820    0.00000000
     atom    3 type  2   force =     0.00000112    0.01643638    0.00000000

     Total force =     0.029756     Total SCF correction =     0.000001

     BFGS Geometry Optimization
     Energy error            =      0.0E+00 Ry
     Gradient error          =      1.6E-02 Ry/Bohr

     number of scf cycles    =   1
     number of bfgs steps    =   0

     energy             new  =     -35.3100601672 Ry

     new trust radius        =       0.0175400164 bohr
     new conv_thr            =            1.0E-12 Ry


ATOMIC_POSITIONS (bohr)
H             9.9845043995        9.9917818165       10.0000000000
H            12.8784043029        9.9917817988       10.0000000000
O            11.4314560246       11.1257865747       10.0000000000



     Writing config-only to output data dir /opt/quantumespresso/results/h2o.save/
     NEW-OLD atomic charge density approx. for the potential

     negative rho (up, down):  1.434E-04 0.000E+00

     total cpu time spent up to now is      300.2 secs

     Self-consistent Calculation

     iteration #  1     ecut=    70.00 Ry     beta= 0.05
     Davidson diagonalization with overlap
     ethr =  1.00E-06,  avg # of iterations =  5.0

     negative rho (up, down):  1.361E-04 0.000E+00

     total cpu time spent up to now is      311.8 secs

     total energy              =     -35.31032198 Ry
     estimated scf accuracy    <       0.00055288 Ry

     iteration #  2     ecut=    70.00 Ry     beta= 0.05
     Davidson diagonalization with overlap
     ethr =  6.91E-06,  avg # of iterations =  1.0

     negative rho (up, down):  8.738E-05 0.000E+00

     total cpu time spent up to now is      318.9 secs

     total energy              =     -35.31013272 Ry
     estimated scf accuracy    <       0.00041538 Ry

     iteration #  3     ecut=    70.00 Ry     beta= 0.05
     Davidson diagonalization with overlap
     ethr =  5.19E-06,  avg # of iterations =  2.0

     negative rho (up, down):  5.990E-05 0.000E+00

     total cpu time spent up to now is      327.3 secs

     total energy              =     -35.31019562 Ry
     estimated scf accuracy    <       0.00002925 Ry

     iteration #  4     ecut=    70.00 Ry     beta= 0.05
     Davidson diagonalization with overlap
     ethr =  3.66E-07,  avg # of iterations =  2.0

     negative rho (up, down):  2.318E-05 0.000E+00

     total cpu time spent up to now is      336.1 secs

     total energy              =     -35.31018610 Ry
     estimated scf accuracy    <       0.00002654 Ry

     iteration #  5     ecut=    70.00 Ry     beta= 0.05
     Davidson diagonalization with overlap
     ethr =  3.32E-07,  avg # of iterations =  2.0

     negative rho (up, down):  2.139E-05 0.000E+00

     total cpu time spent up to now is      344.8 secs

     total energy              =     -35.31019246 Ry
     estimated scf accuracy    <       0.00000452 Ry

     iteration #  6     ecut=    70.00 Ry     beta= 0.05
     Davidson diagonalization with overlap
     ethr =  5.65E-08,  avg # of iterations =  2.0

     negative rho (up, down):  1.713E-05 0.000E+00

     total cpu time spent up to now is      353.4 secs

     total energy              =     -35.31019297 Ry
     estimated scf accuracy    <       0.00000073 Ry

     iteration #  7     ecut=    70.00 Ry     beta= 0.05
     Davidson diagonalization with overlap
     ethr =  9.17E-09,  avg # of iterations =  2.0

     negative rho (up, down):  6.601E-07 0.000E+00

     total cpu time spent up to now is      362.6 secs

     total energy              =     -35.31019295 Ry
     estimated scf accuracy    <       0.00000113 Ry

     iteration #  8     ecut=    70.00 Ry     beta= 0.05
     Davidson diagonalization with overlap
     ethr =  9.17E-09,  avg # of iterations =  2.0

     negative rho (up, down):  7.894E-07 0.000E+00

     total cpu time spent up to now is      371.8 secs

     total energy              =     -35.31019306 Ry
     estimated scf accuracy    <       0.00000002 Ry

     iteration #  9     ecut=    70.00 Ry     beta= 0.05
     Davidson diagonalization with overlap
     ethr =  2.62E-10,  avg # of iterations =  3.0

     total cpu time spent up to now is      382.0 secs

     total energy              =     -35.31019307 Ry
     estimated scf accuracy    <       0.00000002 Ry

     iteration # 10     ecut=    70.00 Ry     beta= 0.05
     Davidson diagonalization with overlap
     ethr =  1.99E-10,  avg # of iterations =  1.0

     total cpu time spent up to now is      390.3 secs

     total energy              =     -35.31019307 Ry
     estimated scf accuracy    <          6.2E-09 Ry

     iteration # 11     ecut=    70.00 Ry     beta= 0.05
     Davidson diagonalization with overlap
     ethr =  7.69E-11,  avg # of iterations =  1.0

     total cpu time spent up to now is      398.8 secs

     total energy              =     -35.31019307 Ry
     estimated scf accuracy    <          4.1E-09 Ry

     iteration # 12     ecut=    70.00 Ry     beta= 0.05
     Davidson diagonalization with overlap
     ethr =  5.10E-11,  avg # of iterations =  1.0

     total cpu time spent up to now is      407.4 secs

     total energy              =     -35.31019307 Ry
     estimated scf accuracy    <          2.8E-09 Ry

     iteration # 13     ecut=    70.00 Ry     beta= 0.05
     Davidson diagonalization with overlap
     ethr =  3.52E-11,  avg # of iterations =  1.0

     total cpu time spent up to now is      415.9 secs

     total energy              =     -35.31019307 Ry
     estimated scf accuracy    <          1.2E-09 Ry

     iteration # 14     ecut=    70.00 Ry     beta= 0.05
     Davidson diagonalization with overlap
     ethr =  1.48E-11,  avg # of iterations =  2.0

     total cpu time spent up to now is      424.9 secs

     total energy              =     -35.31019307 Ry
     estimated scf accuracy    <          1.5E-10 Ry

     iteration # 15     ecut=    70.00 Ry     beta= 0.05
     Davidson diagonalization with overlap
     ethr =  1.93E-12,  avg # of iterations =  2.0

     total cpu time spent up to now is      434.5 secs

     total energy              =     -35.31019307 Ry
     estimated scf accuracy    <          1.1E-11 Ry

     iteration # 16     ecut=    70.00 Ry     beta= 0.05
     Davidson diagonalization with overlap
     ethr =  1.40E-13,  avg # of iterations =  2.0

     total cpu time spent up to now is      443.5 secs

     total energy              =     -35.31019307 Ry
     estimated scf accuracy    <          1.4E-11 Ry

     iteration # 17     ecut=    70.00 Ry     beta= 0.05
     Davidson diagonalization with overlap
     ethr =  1.40E-13,  avg # of iterations =  3.0

     total cpu time spent up to now is      454.0 secs

     total energy              =     -35.31019307 Ry
     estimated scf accuracy    <          2.5E-11 Ry

     iteration # 18     ecut=    70.00 Ry     beta= 0.05
     Davidson diagonalization with overlap
     ethr =  1.40E-13,  avg # of iterations =  1.0

     total cpu time spent up to now is      462.4 secs

     total energy              =     -35.31019307 Ry
     estimated scf accuracy    <          1.7E-11 Ry

     iteration # 19     ecut=    70.00 Ry     beta= 0.05
     Davidson diagonalization with overlap
     ethr =  1.40E-13,  avg # of iterations =  2.0

     total cpu time spent up to now is      471.5 secs

     total energy              =     -35.31019307 Ry
     estimated scf accuracy    <          4.1E-12 Ry

     iteration # 20     ecut=    70.00 Ry     beta= 0.05
     Davidson diagonalization with overlap
     ethr =  1.00E-13,  avg # of iterations =  2.0

     total cpu time spent up to now is      478.7 secs

     End of self-consistent calculation

          k = 0.0000 0.0000 0.0000 (****** PWs)   bands (ev):

   -25.0623 -13.1313  -9.3883  -7.3539  -1.0151

     highest occupied, lowest unoccupied level (ev):    -7.3539   -1.0151

!    total energy              =     -35.31019307 Ry
     estimated scf accuracy    <          6.6E-13 Ry

     The total energy is the sum of the following terms:
     one-electron contribution =     -75.90832760 Ry
     hartree contribution      =      39.41443023 Ry
     xc contribution           =      -9.53689493 Ry
     ewald contribution        =      10.72059923 Ry

     convergence has been achieved in  20 iterations

     Forces acting on atoms (cartesian axes, Ry/au):

     atom    1 type  1   force =     0.00596398    0.00835128    0.00000000
     atom    2 type  1   force =    -0.00596287    0.00834969    0.00000000
     atom    3 type  2   force =    -0.00000110   -0.01670097    0.00000000

     Total force =     0.022125     Total SCF correction =     0.000000
     Energy error            =      1.3E-04 Ry
     Gradient error          =      1.7E-02 Ry/Bohr

     number of scf cycles    =   2
     number of bfgs steps    =   1

     energy             old  =     -35.3100601672 Ry
     energy             new  =     -35.3101930677 Ry

     CASE: energy            _new < energy            _old

     new trust radius        =       0.0093978661 bohr
     new conv_thr            =            1.3E-14 Ry


ATOMIC_POSITIONS (bohr)
H             9.9875205767        9.9964812233       10.0000000000
H            12.8753887448        9.9964802580       10.0000000000
O            11.4314554055       11.1163887087       10.0000000000



     Writing config-only to output data dir /opt/quantumespresso/results/h2o.save/
     NEW-OLD atomic charge density approx. for the potential

     negative rho (up, down):  4.508E-05 0.000E+00

     total cpu time spent up to now is      485.9 secs

     Self-consistent Calculation

     iteration #  1     ecut=    70.00 Ry     beta= 0.05
     Davidson diagonalization with overlap
     ethr =  1.00E-06,  avg # of iterations =  4.0

     negative rho (up, down):  4.273E-05 0.000E+00

     total cpu time spent up to now is      496.7 secs

     total energy              =     -35.31036551 Ry
     estimated scf accuracy    <       0.00009404 Ry

     iteration #  2     ecut=    70.00 Ry     beta= 0.05
     Davidson diagonalization with overlap
     ethr =  1.18E-06,  avg # of iterations =  1.0

     negative rho (up, down):  2.659E-05 0.000E+00

     total cpu time spent up to now is      503.9 secs

     total energy              =     -35.31033142 Ry
     estimated scf accuracy    <       0.00007232 Ry

     iteration #  3     ecut=    70.00 Ry     beta= 0.05
     Davidson diagonalization with overlap
     ethr =  9.04E-07,  avg # of iterations =  2.0

     negative rho (up, down):  2.358E-05 0.000E+00

     total cpu time spent up to now is      512.3 secs

     total energy              =     -35.31034449 Ry
     estimated scf accuracy    <       0.00000503 Ry

     iteration #  4     ecut=    70.00 Ry     beta= 0.05
     Davidson diagonalization with overlap
     ethr =  6.29E-08,  avg # of iterations =  1.0

     negative rho (up, down):  4.440E-06 0.000E+00

     total cpu time spent up to now is      520.9 secs

     total energy              =     -35.31034262 Ry
     estimated scf accuracy    <       0.00000393 Ry

     iteration #  5     ecut=    70.00 Ry     beta= 0.05
     Davidson diagonalization with overlap
     ethr =  4.92E-08,  avg # of iterations =  2.0

     negative rho (up, down):  5.139E-06 0.000E+00

     total cpu time spent up to now is      530.0 secs

     total energy              =     -35.31034269 Ry
     estimated scf accuracy    <       0.00000349 Ry

     iteration #  6     ecut=    70.00 Ry     beta= 0.05
     Davidson diagonalization with overlap
     ethr =  4.37E-08,  avg # of iterations =  2.0

     negative rho (up, down):  3.900E-06 0.000E+00

     total cpu time spent up to now is      539.4 secs

     total energy              =     -35.31034318 Ry
     estimated scf accuracy    <       0.00000017 Ry

     iteration #  7     ecut=    70.00 Ry     beta= 0.05
     Davidson diagonalization with overlap
     ethr =  2.16E-09,  avg # of iterations =  3.0

     negative rho (up, down):  1.942E-08 0.000E+00

     total cpu time spent up to now is      549.1 secs

     total energy              =     -35.31034318 Ry
     estimated scf accuracy    <       0.00000031 Ry

     iteration #  8     ecut=    70.00 Ry     beta= 0.05
     Davidson diagonalization with overlap
     ethr =  2.16E-09,  avg # of iterations =  2.0

     negative rho (up, down):  9.578E-08 0.000E+00

     total cpu time spent up to now is      558.2 secs

     total energy              =     -35.31034320 Ry
     estimated scf accuracy    <       0.00000004 Ry

     iteration #  9     ecut=    70.00 Ry     beta= 0.05
     Davidson diagonalization with overlap
     ethr =  4.40E-10,  avg # of iterations =  2.0

     negative rho (up, down):  1.152E-08 0.000E+00

     total cpu time spent up to now is      568.4 secs

     total energy              =     -35.31034320 Ry
     estimated scf accuracy    <          2.1E-09 Ry

     iteration # 10     ecut=    70.00 Ry     beta= 0.05
     Davidson diagonalization with overlap
     ethr =  2.61E-11,  avg # of iterations =  3.0

     total cpu time spent up to now is      578.5 secs

     total energy              =     -35.31034320 Ry
     estimated scf accuracy    <          3.9E-09 Ry

     iteration # 11     ecut=    70.00 Ry     beta= 0.05
     Davidson diagonalization with overlap
     ethr =  2.61E-11,  avg # of iterations =  2.0

     total cpu time spent up to now is      587.8 secs

     total energy              =     -35.31034320 Ry
     estimated scf accuracy    <          4.8E-10 Ry

     iteration # 12     ecut=    70.00 Ry     beta= 0.05
     Davidson diagonalization with overlap
     ethr =  6.04E-12,  avg # of iterations =  1.0

     total cpu time spent up to now is      596.2 secs

     total energy              =     -35.31034320 Ry
     estimated scf accuracy    <          7.3E-10 Ry

     iteration # 13     ecut=    70.00 Ry     beta= 0.05
     Davidson diagonalization with overlap
     ethr =  6.04E-12,  avg # of iterations =  1.0

     total cpu time spent up to now is      604.7 secs

     total energy              =     -35.31034320 Ry
     estimated scf accuracy    <          7.3E-10 Ry

     iteration # 14     ecut=    70.00 Ry     beta= 0.05
     Davidson diagonalization with overlap
     ethr =  6.04E-12,  avg # of iterations =  1.0

     total cpu time spent up to now is      613.0 secs

     total energy              =     -35.31034320 Ry
     estimated scf accuracy    <          6.1E-10 Ry

     iteration # 15     ecut=    70.00 Ry     beta= 0.05
     Davidson diagonalization with overlap
     ethr =  6.04E-12,  avg # of iterations =  1.0

     total cpu time spent up to now is      621.3 secs

     total energy              =     -35.31034320 Ry
     estimated scf accuracy    <          1.6E-10 Ry

     iteration # 16     ecut=    70.00 Ry     beta= 0.05
     Davidson diagonalization with overlap
     ethr =  2.00E-12,  avg # of iterations =  2.0

     total cpu time spent up to now is      630.8 secs

     total energy              =     -35.31034320 Ry
     estimated scf accuracy    <          2.1E-11 Ry

     iteration # 17     ecut=    70.00 Ry     beta= 0.05
     Davidson diagonalization with overlap
     ethr =  2.59E-13,  avg # of iterations =  2.0

     total cpu time spent up to now is      639.6 secs

     total energy              =     -35.31034320 Ry
     estimated scf accuracy    <          4.9E-12 Ry

     iteration # 18     ecut=    70.00 Ry     beta= 0.05
     Davidson diagonalization with overlap
     ethr =  1.00E-13,  avg # of iterations =  1.0

     total cpu time spent up to now is      647.8 secs

     total energy              =     -35.31034320 Ry
     estimated scf accuracy    <          5.3E-12 Ry

     iteration # 19     ecut=    70.00 Ry     beta= 0.05
     Davidson diagonalization with overlap
     ethr =  1.00E-13,  avg # of iterations =  1.0

     total cpu time spent up to now is      656.3 secs

     total energy              =     -35.31034320 Ry
     estimated scf accuracy    <          3.6E-12 Ry

     iteration # 20     ecut=    70.00 Ry     beta= 0.05
     Davidson diagonalization with overlap
     ethr =  1.00E-13,  avg # of iterations =  1.0

     total cpu time spent up to now is      664.5 secs

     total energy              =     -35.31034320 Ry
     estimated scf accuracy    <          1.1E-12 Ry

     iteration # 21     ecut=    70.00 Ry     beta= 0.05
     Davidson diagonalization with overlap
     ethr =  1.00E-13,  avg # of iterations =  1.0

     total cpu time spent up to now is      672.9 secs

     total energy              =     -35.31034320 Ry
     estimated scf accuracy    <          5.2E-13 Ry

     iteration # 22     ecut=    70.00 Ry     beta= 0.05
     Davidson diagonalization with overlap
     ethr =  1.00E-13,  avg # of iterations =  1.0

     total cpu time spent up to now is      681.1 secs

     total energy              =     -35.31034320 Ry
     estimated scf accuracy    <          1.3E-13 Ry

     iteration # 23     ecut=    70.00 Ry     beta= 0.05
     Davidson diagonalization with overlap
     ethr =  1.00E-13,  avg # of iterations =  1.0

     total cpu time spent up to now is      689.5 secs

     total energy              =     -35.31034320 Ry
     estimated scf accuracy    <          2.6E-14 Ry

     iteration # 24     ecut=    70.00 Ry     beta= 0.05
     Davidson diagonalization with overlap
     ethr =  1.00E-13,  avg # of iterations =  1.0

     total cpu time spent up to now is      697.9 secs

     total energy              =     -35.31034320 Ry
     estimated scf accuracy    <          2.3E-14 Ry

     iteration # 25     ecut=    70.00 Ry     beta= 0.05
     Davidson diagonalization with overlap
     ethr =  1.00E-13,  avg # of iterations =  1.0

     total cpu time spent up to now is      706.4 secs

     total energy              =     -35.31034320 Ry
     estimated scf accuracy    <          3.2E-14 Ry

     iteration # 26     ecut=    70.00 Ry     beta= 0.05
     Davidson diagonalization with overlap
     ethr =  1.00E-13,  avg # of iterations =  1.0

     total cpu time spent up to now is      712.6 secs

     End of self-consistent calculation

          k = 0.0000 0.0000 0.0000 (****** PWs)   bands (ev):

   -25.1155 -13.2137  -9.3705  -7.3651  -0.9945

     highest occupied, lowest unoccupied level (ev):    -7.3651   -0.9945

!    total energy              =     -35.31034320 Ry
     estimated scf accuracy    <          6.5E-15 Ry

     The total energy is the sum of the following terms:
     one-electron contribution =     -76.04279479 Ry
     hartree contribution      =      39.47924521 Ry
     xc contribution           =      -9.54774225 Ry
     ewald contribution        =      10.80094862 Ry

     convergence has been achieved in  26 iterations

     Forces acting on atoms (cartesian axes, Ry/au):

     atom    1 type  1   force =    -0.00156333    0.00131791    0.00000000
     atom    2 type  1   force =     0.00156265    0.00131755    0.00000000
     atom    3 type  2   force =     0.00000068   -0.00263547    0.00000000

     Total force =     0.003912     Total SCF correction =     0.000000
     Energy error            =      1.5E-04 Ry
     Gradient error          =      2.6E-03 Ry/Bohr

     number of scf cycles    =   3
     number of bfgs steps    =   2

     energy             old  =     -35.3101930677 Ry
     energy             new  =     -35.3103432039 Ry

     CASE: energy            _new < energy            _old

     new trust radius        =       0.0027883060 bohr
     new conv_thr            =            1.5E-14 Ry


ATOMIC_POSITIONS (bohr)
H             9.9854538510        9.9978755936       10.0000000000
H            12.8774547024        9.9978741936       10.0000000000
O            11.4314561736       11.1136004028       10.0000000000



     Writing config-only to output data dir /opt/quantumespresso/results/h2o.save/
     NEW-OLD atomic charge density approx. for the potential

     negative rho (up, down):  1.952E-05 0.000E+00

     total cpu time spent up to now is      719.9 secs

     Self-consistent Calculation

     iteration #  1     ecut=    70.00 Ry     beta= 0.05
     Davidson diagonalization with overlap
     ethr =  1.00E-06,  avg # of iterations =  3.0

     Threshold (ethr) on eigenvalues was too large:
     Diagonalizing with lowered threshold

     Davidson diagonalization with overlap
     ethr =  2.73E-08,  avg # of iterations =  2.0

     negative rho (up, down):  1.849E-05 0.000E+00

     total cpu time spent up to now is      735.5 secs

     total energy              =     -35.31035694 Ry
     estimated scf accuracy    <       0.00000174 Ry

     iteration #  2     ecut=    70.00 Ry     beta= 0.05
     Davidson diagonalization with overlap
     ethr =  2.17E-08,  avg # of iterations =  1.0

     negative rho (up, down):  1.325E-05 0.000E+00

     total cpu time spent up to now is      742.5 secs

     total energy              =     -35.31035663 Ry
     estimated scf accuracy    <       0.00000134 Ry

     iteration #  3     ecut=    70.00 Ry     beta= 0.05
     Davidson diagonalization with overlap
     ethr =  1.67E-08,  avg # of iterations =  1.0

     negative rho (up, down):  7.605E-06 0.000E+00

     total cpu time spent up to now is      749.9 secs

     total energy              =     -35.31035666 Ry
     estimated scf accuracy    <       0.00000037 Ry

     iteration #  4     ecut=    70.00 Ry     beta= 0.05
     Davidson diagonalization with overlap
     ethr =  4.57E-09,  avg # of iterations =  2.0

     negative rho (up, down):  1.108E-06 0.000E+00

     total cpu time spent up to now is      759.1 secs

     total energy              =     -35.31035668 Ry
     estimated scf accuracy    <       0.00000023 Ry

     iteration #  5     ecut=    70.00 Ry     beta= 0.05
     Davidson diagonalization with overlap
     ethr =  2.91E-09,  avg # of iterations =  1.0

     negative rho (up, down):  4.500E-07 0.000E+00

     total cpu time spent up to now is      767.8 secs

     total energy              =     -35.31035668 Ry
     estimated scf accuracy    <       0.00000004 Ry

     iteration #  6     ecut=    70.00 Ry     beta= 0.05
     Davidson diagonalization with overlap
     ethr =  4.89E-10,  avg # of iterations =  2.0

     negative rho (up, down):  1.132E-07 0.000E+00

     total cpu time spent up to now is      778.0 secs

     total energy              =     -35.31035669 Ry
     estimated scf accuracy    <       0.00000002 Ry

     iteration #  7     ecut=    70.00 Ry     beta= 0.05
     Davidson diagonalization with overlap
     ethr =  2.05E-10,  avg # of iterations =  2.0

     total cpu time spent up to now is      788.4 secs

     total energy              =     -35.31035669 Ry
     estimated scf accuracy    <          5.9E-09 Ry

     iteration #  8     ecut=    70.00 Ry     beta= 0.05
     Davidson diagonalization with overlap
     ethr =  7.33E-11,  avg # of iterations =  2.0

     total cpu time spent up to now is      798.0 secs

     total energy              =     -35.31035669 Ry
     estimated scf accuracy    <          1.2E-09 Ry

     iteration #  9     ecut=    70.00 Ry     beta= 0.05
     Davidson diagonalization with overlap
     ethr =  1.44E-11,  avg # of iterations =  2.0

     total cpu time spent up to now is      807.4 secs

     total energy              =     -35.31035669 Ry
     estimated scf accuracy    <          8.5E-11 Ry

     iteration # 10     ecut=    70.00 Ry     beta= 0.05
     Davidson diagonalization with overlap
     ethr =  1.06E-12,  avg # of iterations =  2.0

     total cpu time spent up to now is      817.9 secs

     total energy              =     -35.31035669 Ry
     estimated scf accuracy    <          7.9E-10 Ry

     iteration # 11     ecut=    70.00 Ry     beta= 0.05
     Davidson diagonalization with overlap
     ethr =  1.06E-12,  avg # of iterations =  3.0

     total cpu time spent up to now is      828.7 secs

     total energy              =     -35.31035669 Ry
     estimated scf accuracy    <          6.3E-12 Ry

     iteration # 12     ecut=    70.00 Ry     beta= 0.05
     Davidson diagonalization with overlap
     ethr =  1.00E-13,  avg # of iterations =  1.0

     total cpu time spent up to now is      837.5 secs

     total energy              =     -35.31035669 Ry
     estimated scf accuracy    <          2.3E-12 Ry

     iteration # 13     ecut=    70.00 Ry     beta= 0.05
     Davidson diagonalization with overlap
     ethr =  1.00E-13,  avg # of iterations =  1.0

     total cpu time spent up to now is      847.3 secs

     total energy              =     -35.31035669 Ry
     estimated scf accuracy    <          1.2E-12 Ry

     iteration # 14     ecut=    70.00 Ry     beta= 0.05
     Davidson diagonalization with overlap
     ethr =  1.00E-13,  avg # of iterations =  1.0

     total cpu time spent up to now is      856.6 secs

     total energy              =     -35.31035669 Ry
     estimated scf accuracy    <          2.3E-14 Ry

     iteration # 15     ecut=    70.00 Ry     beta= 0.05
     Davidson diagonalization with overlap
     ethr =  1.00E-13,  avg # of iterations =  1.0

     total cpu time spent up to now is      862.8 secs

     End of self-consistent calculation

          k = 0.0000 0.0000 0.0000 (****** PWs)   bands (ev):

   -25.1152 -13.2321  -9.3574  -7.3648  -0.9919

     highest occupied, lowest unoccupied level (ev):    -7.3648   -0.9919

!    total energy              =     -35.31035669 Ry
     estimated scf accuracy    <          2.4E-15 Ry

     The total energy is the sum of the following terms:
     one-electron contribution =     -76.05282719 Ry
     hartree contribution      =      39.48448824 Ry
     xc contribution           =      -9.54862648 Ry
     ewald contribution        =      10.80660874 Ry

     convergence has been achieved in  15 iterations

     Forces acting on atoms (cartesian axes, Ry/au):

     atom    1 type  1   force =    -0.00159933    0.00034679    0.00000000
     atom    2 type  1   force =     0.00159982    0.00034544    0.00000000
     atom    3 type  2   force =    -0.00000049   -0.00069224    0.00000000

     Total force =     0.002416     Total SCF correction =     0.000000
     Energy error            =      1.3E-05 Ry
     Gradient error          =      1.6E-03 Ry/Bohr

     number of scf cycles    =   4
     number of bfgs steps    =   3

     energy             old  =     -35.3103432039 Ry
     energy             new  =     -35.3103566935 Ry

     CASE: energy            _new < energy            _old

     new trust radius        =       0.0030671366 bohr
     new conv_thr            =            1.0E-14 Ry


ATOMIC_POSITIONS (bohr)
H             9.9826135296        9.9990331344       10.0000000000
H            12.8802956433        9.9990295017       10.0000000000
O            11.4314555542       11.1112875538       10.0000000000



     Writing config-only to output data dir /opt/quantumespresso/results/h2o.save/
     NEW-OLD atomic charge density approx. for the potential

     negative rho (up, down):  2.382E-05 0.000E+00

     total cpu time spent up to now is      870.2 secs

     Self-consistent Calculation

     iteration #  1     ecut=    70.00 Ry     beta= 0.05
     Davidson diagonalization with overlap
     ethr =  1.00E-06,  avg # of iterations =  3.0

     Threshold (ethr) on eigenvalues was too large:
     Diagonalizing with lowered threshold

     Davidson diagonalization with overlap
     ethr =  1.08E-08,  avg # of iterations =  3.0

     negative rho (up, down):  2.257E-05 0.000E+00

     total cpu time spent up to now is      887.1 secs

     total energy              =     -35.31036454 Ry
     estimated scf accuracy    <       0.00000072 Ry

     iteration #  2     ecut=    70.00 Ry     beta= 0.05
     Davidson diagonalization with overlap
     ethr =  9.04E-09,  avg # of iterations =  1.0

     negative rho (up, down):  5.322E-06 0.000E+00

     total cpu time spent up to now is      894.3 secs

     total energy              =     -35.31036450 Ry
     estimated scf accuracy    <       0.00000065 Ry

     iteration #  3     ecut=    70.00 Ry     beta= 0.05
     Davidson diagonalization with overlap
     ethr =  8.12E-09,  avg # of iterations =  1.0

     negative rho (up, down):  2.531E-06 0.000E+00

     total cpu time spent up to now is      901.5 secs

     total energy              =     -35.31036455 Ry
     estimated scf accuracy    <       0.00000003 Ry

     iteration #  4     ecut=    70.00 Ry     beta= 0.05
     Davidson diagonalization with overlap
     ethr =  4.33E-10,  avg # of iterations =  2.0

     negative rho (up, down):  1.939E-06 0.000E+00

     total cpu time spent up to now is      910.0 secs

     total energy              =     -35.31036455 Ry
     estimated scf accuracy    <       0.00000002 Ry

     iteration #  5     ecut=    70.00 Ry     beta= 0.05
     Davidson diagonalization with overlap
     ethr =  2.52E-10,  avg # of iterations =  2.0

     negative rho (up, down):  5.448E-08 0.000E+00

     total cpu time spent up to now is      918.4 secs

     total energy              =     -35.31036455 Ry
     estimated scf accuracy    <          5.7E-09 Ry

     iteration #  6     ecut=    70.00 Ry     beta= 0.05
     Davidson diagonalization with overlap
     ethr =  7.09E-11,  avg # of iterations =  2.0

     total cpu time spent up to now is      927.0 secs

     total energy              =     -35.31036455 Ry
     estimated scf accuracy    <          3.7E-09 Ry

     iteration #  7     ecut=    70.00 Ry     beta= 0.05
     Davidson diagonalization with overlap
     ethr =  4.65E-11,  avg # of iterations =  2.0

     total cpu time spent up to now is      935.9 secs

     total energy              =     -35.31036455 Ry
     estimated scf accuracy    <          1.1E-09 Ry

     iteration #  8     ecut=    70.00 Ry     beta= 0.05
     Davidson diagonalization with overlap
     ethr =  1.33E-11,  avg # of iterations =  2.0

     total cpu time spent up to now is      945.7 secs

     total energy              =     -35.31036455 Ry
     estimated scf accuracy    <          6.9E-10 Ry

     iteration #  9     ecut=    70.00 Ry     beta= 0.05
     Davidson diagonalization with overlap
     ethr =  8.60E-12,  avg # of iterations =  1.0

     total cpu time spent up to now is      954.7 secs

     total energy              =     -35.31036455 Ry
     estimated scf accuracy    <          5.1E-10 Ry

     iteration # 10     ecut=    70.00 Ry     beta= 0.05
     Davidson diagonalization with overlap
     ethr =  6.41E-12,  avg # of iterations =  1.0

     total cpu time spent up to now is      964.5 secs

     total energy              =     -35.31036455 Ry
     estimated scf accuracy    <          3.0E-10 Ry

     iteration # 11     ecut=    70.00 Ry     beta= 0.05
     Davidson diagonalization with overlap
     ethr =  3.77E-12,  avg # of iterations =  2.0

     total cpu time spent up to now is      974.0 secs

     total energy              =     -35.31036455 Ry
     estimated scf accuracy    <          2.5E-12 Ry

     iteration # 12     ecut=    70.00 Ry     beta= 0.05
     Davidson diagonalization with overlap
     ethr =  1.00E-13,  avg # of iterations =  2.0

     total cpu time spent up to now is      983.2 secs

     total energy              =     -35.31036455 Ry
     estimated scf accuracy    <          5.3E-12 Ry

     iteration # 13     ecut=    70.00 Ry     beta= 0.05
     Davidson diagonalization with overlap
     ethr =  1.00E-13,  avg # of iterations =  1.0

     total cpu time spent up to now is      991.8 secs

     total energy              =     -35.31036455 Ry
     estimated scf accuracy    <          7.7E-12 Ry

     iteration # 14     ecut=    70.00 Ry     beta= 0.05
     Davidson diagonalization with overlap
     ethr =  1.00E-13,  avg # of iterations =  2.0

     total cpu time spent up to now is     1001.3 secs

     total energy              =     -35.31036455 Ry
     estimated scf accuracy    <          7.1E-13 Ry

     iteration # 15     ecut=    70.00 Ry     beta= 0.05
     Davidson diagonalization with overlap
     ethr =  1.00E-13,  avg # of iterations =  2.0

     total cpu time spent up to now is     1010.8 secs

     total energy              =     -35.31036455 Ry
     estimated scf accuracy    <          1.1E-11 Ry

     iteration # 16     ecut=    70.00 Ry     beta= 0.05
     Davidson diagonalization with overlap
     ethr =  1.00E-13,  avg # of iterations =  1.0

     total cpu time spent up to now is     1019.4 secs

     total energy              =     -35.31036455 Ry
     estimated scf accuracy    <          7.5E-12 Ry

     iteration # 17     ecut=    70.00 Ry     beta= 0.05
     Davidson diagonalization with overlap
     ethr =  1.00E-13,  avg # of iterations =  1.0

     total cpu time spent up to now is     1028.4 secs

     total energy              =     -35.31036455 Ry
     estimated scf accuracy    <          6.7E-12 Ry

     iteration # 18     ecut=    70.00 Ry     beta= 0.05
     Davidson diagonalization with overlap
     ethr =  1.00E-13,  avg # of iterations =  2.0

     total cpu time spent up to now is     1038.4 secs

     total energy              =     -35.31036455 Ry
     estimated scf accuracy    <          1.8E-13 Ry

     iteration # 19     ecut=    70.00 Ry     beta= 0.05
     Davidson diagonalization with overlap
     ethr =  1.00E-13,  avg # of iterations =  1.0

     total cpu time spent up to now is     1046.7 secs

     total energy              =     -35.31036455 Ry
     estimated scf accuracy    <          9.7E-14 Ry

     iteration # 20     ecut=    70.00 Ry     beta= 0.05
     Davidson diagonalization with overlap
     ethr =  1.00E-13,  avg # of iterations =  1.0

     total cpu time spent up to now is     1053.0 secs

     End of self-consistent calculation

          k = 0.0000 0.0000 0.0000 (****** PWs)   bands (ev):

   -25.1088 -13.2448  -9.3437  -7.3633  -0.9910

     highest occupied, lowest unoccupied level (ev):    -7.3633   -0.9910

!    total energy              =     -35.31036455 Ry
     estimated scf accuracy    <          1.1E-15 Ry

     The total energy is the sum of the following terms:
     one-electron contribution =     -76.04963302 Ry
     hartree contribution      =      39.48344436 Ry
     xc contribution           =      -9.54845720 Ry
     ewald contribution        =      10.80428130 Ry

     convergence has been achieved in  20 iterations

     Forces acting on atoms (cartesian axes, Ry/au):

     atom    1 type  1   force =    -0.00077054   -0.00002116    0.00000000
     atom    2 type  1   force =     0.00076870   -0.00002072    0.00000000
     atom    3 type  2   force =     0.00000184    0.00004188    0.00000000

     Total force =     0.001090     Total SCF correction =     0.000000
     Energy error            =      7.9E-06 Ry
     Gradient error          =      7.7E-04 Ry/Bohr

     bfgs converged in   5 scf cycles and   4 bfgs steps
     (criteria: energy <  1.0E-04 Ry, force <  1.0E-03 Ry/Bohr)

     End of BFGS Geometry Optimization

     Final energy             =     -35.3103645503 Ry

     File /opt/quantumespresso/results/h2o.bfgs deleted, as requested
Begin final coordinates

ATOMIC_POSITIONS (bohr)
H             9.9826135296        9.9990331344       10.0000000000
H            12.8802956433        9.9990295017       10.0000000000
O            11.4314555542       11.1112875538       10.0000000000
End final coordinates



     Writing all to output data dir /opt/quantumespresso/results/h2o.save/
 
     init_run     :     15.37s CPU     18.60s WALL (       1 calls)
     electrons    :    859.59s CPU   1007.24s WALL (       5 calls)
     update_pot   :     10.65s CPU     13.91s WALL (       4 calls)
     forces       :     11.30s CPU     13.58s WALL (       5 calls)

     Called by init_run:
     wfcinit      :      1.37s CPU      1.63s WALL (       1 calls)
     potinit      :      1.46s CPU      1.81s WALL (       1 calls)
     hinit0       :      1.47s CPU      1.79s WALL (       1 calls)

     Called by electrons:
     c_bands      :    393.70s CPU    466.63s WALL (     112 calls)
     sum_band     :    181.70s CPU    215.61s WALL (     112 calls)
     v_of_rho     :     84.03s CPU     97.95s WALL (     115 calls)
     mix_rho      :    180.74s CPU    205.17s WALL (     112 calls)

     Called by c_bands:
     init_us_2    :      6.97s CPU      7.84s WALL (     225 calls)
     init_us_2:cp :      6.96s CPU      7.83s WALL (     225 calls)
     regterg      :    379.44s CPU    450.48s WALL (     112 calls)

     Called by *egterg:
     rdiaghg      :      0.02s CPU      0.02s WALL (     321 calls)
     h_psi        :    357.22s CPU    426.55s WALL (     328 calls)
     g_psi        :      1.30s CPU      1.37s WALL (     215 calls)

     Called by h_psi:
     h_psi:calbec :      6.65s CPU      7.22s WALL (     328 calls)
     vloc_psi     :    340.60s CPU    408.47s WALL (     328 calls)
     add_vuspsi   :      7.09s CPU      7.64s WALL (     328 calls)

     General routines
     calbec       :      7.18s CPU      7.76s WALL (     348 calls)
     fft          :    126.27s CPU    157.51s WALL (     366 calls)
     ffts         :     33.12s CPU     41.21s WALL (     112 calls)
     fftw         :    330.13s CPU    401.86s WALL (    2042 calls)
 
     Parallel routines
 
     PWSCF        :  14m59.39s CPU  17m37.24s WALL

 
   This run was terminated on:  16:17:29  10Apr2023            

=------------------------------------------------------------------------------=
   JOB DONE.
=------------------------------------------------------------------------------=
